LAMMPS data file via write_data, version 23 Jun 2022, timestep = 1000000

8928 atoms
4 atom types

69.0408229020297 106.1591770979897 xlo xhi
48.894906412581136 101.10509358743617 ylo yhi
78.14382772221157 121.85617227777988 zlo zhi

Masses

1 1.008
2 15.999
3 12.011
4 14.007

Atoms # charge/kk

260 1 1.4614898456898456e-01 7.7790283867651112e+01 5.6704544758564644e+01 8.1850941990855191e+01 0 0 0
264 1 1.6160244442115976e-01 7.5773559830295454e+01 5.6645431654689816e+01 8.0886908952380082e+01 0 0 0
63 1 1.6540090529297399e-01 7.5870309905116457e+01 5.2774180401312897e+01 8.3448042273563772e+01 0 0 0
98 2 -5.6277186632516307e-01 7.6860042409457776e+01 5.4782116610123886e+01 8.4783805669705870e+01 0 0 0
97 2 -6.2057524120415997e-01 7.7054692224850768e+01 5.5335431871698745e+01 8.7142395290518166e+01 0 0 0
95 3 5.5071601407629345e-01 7.6954766160174671e+01 5.4524797574864607e+01 8.6036240003947796e+01 0 0 0
99 3 1.0322065282035629e-01 7.7343051164067845e+01 5.6845813889350921e+01 8.6770932354103422e+01 0 0 0
94 4 -4.2693126209660365e-01 7.6829751844718118e+01 5.3098242347721772e+01 8.6438905112388341e+01 0 0 0
59 2 -5.2899772644532805e-01 7.5556708629583483e+01 5.4436708367642154e+01 8.1384706507304685e+01 0 0 0
55 3 4.6395703207800232e-01 7.4387711227011451e+01 5.3941786326626634e+01 8.1521109052565791e+01 0 0 0
60 3 1.6386242477875908e-02 7.4783769545288578e+01 5.2584894725081696e+01 8.3547885041116629e+01 0 0 0
100 3 -2.1874938099468941e-01 7.6017175112150483e+01 5.7325641542147210e+01 8.6163977812217780e+01 0 0 0
104 1 1.7437644556616816e-01 7.5565600851638123e+01 5.6556278666099828e+01 8.5493107347221553e+01 0 0 0
58 2 -5.6626662742773393e-01 7.3881152416442433e+01 5.2997402152954741e+01 8.2430901190793477e+01 0 0 0
62 1 2.0610123013810688e-01 7.4622378970537298e+01 5.3054935459546897e+01 8.4529803597918132e+01 0 0 0
57 1 1.6934203173925635e-01 7.3410820467932524e+01 5.4731286056483391e+01 7.9605830267054444e+01 0 0 0
241 3 3.2007309069989921e-02 7.7211681375130127e+01 5.1638680046378056e+01 7.9945191563349198e+01 0 0 0
242 3 -2.0986796301452657e-01 7.7777405942034264e+01 5.2802756295548761e+01 7.9053287966845332e+01 0 0 0
52 3 -2.4515054906297065e-01 7.3179953373335081e+01 5.4301993494366464e+01 8.0646112605240262e+01 0 0 0
56 1 1.7659184878680473e-01 7.2773199136919231e+01 5.3319210294662376e+01 8.0313714744754193e+01 0 0 0
69 1 1.6852156331127793e-01 7.4305745095367129e+01 5.1438485570456081e+01 8.5838610401640793e+01 0 0 0
49 3 -1.9467772169058720e-01 7.2183878623271454e+01 5.5175188798337651e+01 8.1418383346681608e+01 0 0 0
618 1 1.8885249730303710e-01 7.4043420111607091e+01 5.4126685465140000e+01 8.7484948586764929e+01 0 0 0
244 1 1.2126174475507963e-01 7.6163612178657544e+01 5.1904432849868932e+01 8.0148043026265881e+01 0 0 0
61 3 -1.8473355339552180e-01 7.4649129963589644e+01 5.1003952753293696e+01 8.3647703901557406e+01 0 0 0
65 1 2.2719987075243306e-01 7.3888409669721511e+01 5.0670147182317564e+01 8.2895403927695540e+01 0 0 0
64 3 1.2468861143798476e-01 7.4477321223165575e+01 5.0541765162125628e+01 8.5159853011403129e+01 0 0 0
66 1 1.8110647237531921e-01 7.5633958762256555e+01 5.0538943474452957e+01 8.3257302185552419e+01 0 0 0
239 2 -5.6782823769287127e-01 7.7542393306225904e+01 5.0373815509614431e+01 7.9278044790028090e+01 0 0 0
21 1 1.5854832527592341e-01 7.3359553384731015e+01 5.6442419602370400e+01 8.4674818234970616e+01 0 0 0
92 1 1.6014746608244859e-01 7.7260234875386132e+01 5.1157466336822701e+01 8.4791074667135334e+01 0 0 0
54 1 1.6778654282197641e-01 7.2068895445810810e+01 5.4829478489030613e+01 8.2471832999178929e+01 0 0 0
16 1 1.6105529219073839e-01 7.1395138791755713e+01 5.2241525547328315e+01 8.4010014567998113e+01 0 0 0
619 1 2.1662063279541702e-01 7.2666803913804472e+01 5.4088309404645848e+01 8.8432939387366460e+01 0 0 0
53 1 1.9262726844373215e-01 7.1174656053075324e+01 5.5058223166204812e+01 8.1052426931576633e+01 0 0 0
3201 1 1.5820288024417092e-01 7.3234516532712050e+01 5.1070184762461452e+01 8.0625805845853762e+01 0 1 0
25 1 1.2225577515663213e-01 7.2853280704409116e+01 5.6440578469406674e+01 8.7238083740003077e+01 0 0 0
1 1 3.2739319222076529e-01 7.1685727066138142e+01 5.1321442659652710e+01 8.1914581826882738e+01 0 0 0
18 3 -2.1594994996394201e-01 7.2342968872637613e+01 5.6073177649458785e+01 8.5175830464907278e+01 0 0 0
2 2 -6.5574347316099180e-01 7.0978300944291661e+01 5.1411415270646827e+01 8.1212404157120389e+01 0 0 0
96 1 3.1266720580981855e-01 7.6647860066986112e+01 5.3156341242642554e+01 8.7411774106527673e+01 0 0 0
19 2 -5.7846887913629363e-01 7.3089027443401335e+01 5.3736430291547357e+01 8.5747717490643680e+01 0 0 0
17 3 4.8512251084952385e-01 7.2202485462845004e+01 5.4562623196998082e+01 8.5347875072651192e+01 0 0 0
3196 3 -2.1614554297667865e-01 7.3639691944827575e+01 5.0299064168102312e+01 7.9954975805043560e+01 0 1 0
22 1 2.0939889693025923e-01 7.1533219789997617e+01 5.6459370670577606e+01 8.4479559012619234e+01 0 0 0
108 1 1.7824629804590508e-01 7.7148692130313350e+01 5.6967610856904351e+01 8.8829168917293714e+01 0 0 0
50 1 1.2191730881246028e-01 7.3462949840133604e+01 5.6728473635982823e+01 8.0640478232222776e+01 0 0 0
3200 1 1.9269137659317551e-01 7.4695565174876904e+01 5.0286521986679290e+01 8.0393609285410236e+01 0 1 0
6 1 1.3113911131952963e-01 7.0694180963624063e+01 5.3504937978615267e+01 8.2139022583590133e+01 0 0 0
14 2 -5.4759694101850764e-01 7.0890247976367021e+01 5.4321624198217705e+01 8.4898507533825978e+01 0 0 0
10 3 2.5204916039989173e-02 7.0687249904576447e+01 5.2872187554133852e+01 8.4613018832977602e+01 0 0 0
15 1 1.3969827393474188e-01 7.0711200650835281e+01 5.2017077486246563e+01 8.5387065344834795e+01 0 0 0
3 3 -2.9006757288458435e-02 7.0179243923775317e+01 5.2591910698151082e+01 8.1677845624332008e+01 0 0 0
612 2 -5.5251608006427444e-01 7.1722164628102576e+01 5.1255504385266015e+01 8.7774927538014452e+01 0 0 0
614 3 -1.9883835809785286e-01 7.3779913343767618e+01 5.4048741229129433e+01 8.8574678068664099e+01 0 0 0
48 3 4.0145750602847897e-02 7.2494910644448424e+01 5.6781858394273705e+01 8.1288354634376589e+01 0 0 0
247 1 2.1232172780857048e-01 7.6877370720099123e+01 5.3471732284124116e+01 7.8860830261487990e+01 0 0 0
51 1 1.3742412207061408e-01 7.2970821300891373e+01 5.7209441528470911e+01 8.2229114444642960e+01 0 0 0
70 2 -6.5445032021881111e-01 7.2398164645420295e+01 4.9902069236946517e+01 8.3916444096247233e+01 0 0 0
236 3 4.8272124318561205e-01 7.7127279680076541e+01 4.9234921132026074e+01 8.0077781103185472e+01 0 0 0
240 2 -5.8353315292628571e-01 7.6274516873678877e+01 4.9177322764969865e+01 8.1005932237193662e+01 0 0 0
67 3 -1.8996165444472340e-02 7.3144519234326012e+01 4.9766589894725193e+01 8.5206577464346751e+01 0 0 0
24 1 1.5154679456063572e-01 7.1158021572635391e+01 5.6603078235870186e+01 8.6977218471872803e+01 0 0 0
20 3 -1.8968063928307552e-01 7.2112774076903179e+01 5.6818160223785974e+01 8.6459840607075208e+01 0 0 0
68 2 -5.7371555411798303e-01 7.5576731958478291e+01 4.9563706074433618e+01 8.5488553417249022e+01 0 0 0
3003 1 1.6563954376244719e-01 7.0382225749449063e+01 4.9747808339304861e+01 7.9964736920514724e+01 0 1 0
5 1 1.7114836588488408e-01 6.9735100086155811e+01 5.3209088312306349e+01 8.0846477894093596e+01 0 0 0
72 1 2.0717351615508633e-01 7.2677067057622708e+01 5.0249723884849118e+01 8.6147466184697365e+01 0 0 0
76 2 -5.5276162567152654e-01 7.4595868269215501e+01 4.9608174319655518e+01 8.7653241084685973e+01 0 0 0
148 4 -4.0922756722525999e-01 6.9387418154445797e+01 5.4685676746203939e+01 7.8734656629612971e+01 0 0 0
4 3 1.0756771783964114e-01 6.9043461487189802e+01 5.2156693386199322e+01 8.2645903192928102e+01 0 0 0
2999 3 4.2154812955446402e-02 6.9298119933963292e+01 4.9575881057075705e+01 7.9627126684041556e+01 0 1 0
622 1 1.0416569148739534e-01 7.4394995466301651e+01 5.6120698025904254e+01 8.8551866916878780e+01 0 0 0
263 1 1.6317085951615684e-01 7.6231304305813339e+01 5.7392230705113739e+01 7.9467674187222926e+01 0 0 0
73 3 5.9965412812749852e-01 7.5524469725032944e+01 4.9268775379896908e+01 8.6844351612154426e+01 0 0 0
84 2 -5.2002496818848831e-01 7.7164712864070850e+01 5.1842429833791378e+01 8.8657825050536758e+01 0 0 0
125 4 -9.5377988965430552e-02 7.7798620415743542e+01 6.6214552331786621e+01 8.3477386928840062e+01 0 0 0
3002 2 -4.2337135212112476e-01 6.9239297385376446e+01 4.9220458923646959e+01 7.8323843220675741e+01 0 1 0
7 3 -2.3122151933748147e-01 6.9314994617249738e+01 5.2929264621774799e+01 8.3950023144856644e+01 0 0 0
77 3 2.4076018458638535e-03 7.7548030747437025e+01 4.9450500928576119e+01 8.8336282664688383e+01 0 0 0
3193 3 -1.6464186077748855e-01 7.3543523014665197e+01 5.0671550505839598e+01 7.8430292468730997e+01 0 1 0
3197 1 1.4243694670417370e-01 7.3784174021106281e+01 5.1785630488529257e+01 7.8442373843997316e+01 0 1 0
9 1 1.3980707511640986e-01 6.9262595092664512e+01 5.1084360237457446e+01 8.2861652106259385e+01 0 0 0
150 1 2.8478378120422737e-01 6.9335315692434349e+01 5.3605224156497869e+01 7.8696555212426460e+01 0 0 0
601 3 6.9992800728880936e-02 6.9463064767808817e+01 5.3366016197149605e+01 8.8229735563784843e+01 0 0 0
74 1 3.4338126510677902e-01 7.2199150909816922e+01 4.8939270905482481e+01 8.3870306649123933e+01 0 0 0
604 1 1.4374775110553870e-01 7.0368891516067265e+01 5.4084032946087319e+01 8.8114482593545048e+01 0 0 0
3199 3 3.7186640815617844e-02 7.2919976732638332e+01 4.8900506434602754e+01 8.0070718464635178e+01 0 1 0
603 1 1.5779857601605263e-01 6.9683034704415306e+01 5.2599775191969108e+01 8.7408330628696362e+01 0 0 0
249 2 -5.4530178322429246e-01 7.8314773721891882e+01 5.5154442389409681e+01 7.9656984737499386e+01 0 0 0
545 1 1.8882422664074977e-01 6.9316733286708399e+01 6.1568437013773909e+01 8.7403565862480804e+01 0 0 0
102 1 2.0357553086735269e-01 7.8214065228187820e+01 5.7076800960785299e+01 8.6057847322586525e+01 0 0 0
615 1 1.8181962448805855e-01 7.4569231406987953e+01 5.1971805913473041e+01 8.8367156421796125e+01 0 0 0
105 1 1.2033527970335638e-01 7.5277236368846701e+01 5.7258853632099793e+01 8.7036988141909177e+01 0 0 0
243 1 1.3875770355135322e-01 7.7462349237284897e+01 5.1766786573164886e+01 8.1093960644866456e+01 0 0 0
90 3 -1.6692071601052745e-02 7.8187324294544851e+01 5.2275125977512239e+01 8.6469503791849050e+01 0 0 0
610 1 1.6287725344796083e-01 6.9856914662730389e+01 5.0499731511615728e+01 8.8916898760821226e+01 0 0 0
88 3 2.4703932677716117e-02 7.8193250828797517e+01 5.1136190077676886e+01 8.5394449843869594e+01 0 0 0
608 3 4.9961871965564719e-01 7.1778114540751389e+01 5.1593944124905342e+01 8.9004370296591460e+01 0 0 0
149 3 5.7405133318192902e-01 7.0729278311508352e+01 5.4958925194181035e+01 7.8189690810750207e+01 0 0 0
1520 1 1.5890101158972522e-01 7.5458776740617495e+01 6.6289202065420440e+01 8.3137927714599385e+01 0 0 0
590 1 1.7218771584048295e-01 7.4861601999908160e+01 6.2751953202328970e+01 8.8652297190909863e+01 0 0 0
454 1 1.1992507971464721e-01 7.8151611744860105e+01 6.1474457443204578e+01 8.8596148272034043e+01 0 0 0
27 1 1.4450523520565162e-01 7.2790179059727635e+01 5.8784203425882858e+01 8.7160710005729626e+01 0 0 0
261 3 1.7279472134519410e-02 7.6210137147358324e+01 5.7618106511675791e+01 8.0602726982664251e+01 0 0 0
35 1 1.5674344906086393e-01 7.3979557764657599e+01 6.2085883959094808e+01 8.2635856143057723e+01 0 0 0
101 3 -3.8912767018132132e-04 7.7590440281897315e+01 5.7680884709046765e+01 8.8039060260115050e+01 0 0 0
276 3 6.1182238576371595e-01 7.6681171055104940e+01 6.0816983186859510e+01 7.8457424376232140e+01 0 0 0
304 1 1.2631551196110852e-01 7.7959222766503700e+01 6.5510271948529578e+01 7.9857931340201930e+01 0 0 0
541 3 -1.8942250653907994e-01 6.9435530336530533e+01 6.1628591591317338e+01 8.6321505935559486e+01 0 0 0
116 3 -1.7787123204350366e-01 7.8030695285199059e+01 6.2864798527284229e+01 8.5731620257390176e+01 0 0 0
47 2 -3.9539209278356080e-01 7.1433620604566983e+01 5.7518215232443147e+01 8.0871732669051241e+01 0 0 0
539 3 -2.5195571647747889e-01 7.0796344393512484e+01 6.2230793367131490e+01 8.5903907231049558e+01 0 0 0
124 1 1.5913662517781926e-01 7.7399943758375244e+01 6.3328417065031275e+01 8.3726717429861012e+01 0 0 0
581 1 1.2701113781766860e-01 7.0489821709768890e+01 5.9226911408371073e+01 8.8577852389377256e+01 0 0 0
114 3 -2.5896422938771674e-01 7.8270266919684076e+01 6.1464671875511783e+01 8.5198034118075370e+01 0 0 0
38 1 1.3330208558413492e-01 7.3568114928718387e+01 6.1548534462703344e+01 8.0404442341249805e+01 0 0 0
345 1 1.6001629727124964e-01 6.9783726335334350e+01 6.3224767204591949e+01 8.3708014796223225e+01 0 0 0
34 1 1.6543365439072510e-01 7.2247491174638412e+01 6.2373821287229170e+01 8.2786035310998045e+01 0 0 0
584 3 -2.2477351175721216e-01 7.5828421678222142e+01 6.0839944734644860e+01 8.9033506256469181e+01 0 0 0
28 1 1.6497008321338733e-01 7.1333328264055851e+01 5.8900987119011454e+01 8.6608983330208858e+01 0 0 0
161 1 1.6195828188114533e-01 7.2666358837172965e+01 5.8114916879812519e+01 7.8656209293740019e+01 0 0 0
536 1 1.0949847384421094e-01 7.1277713130005282e+01 6.5196662230883220e+01 8.8797585506654755e+01 0 0 0
162 1 1.0862014049121602e-01 7.4014446533883614e+01 5.7292043433475030e+01 7.8467450894413901e+01 0 0 0
270 1 1.4891271441765405e-01 7.6012582473443913e+01 6.0166689147578957e+01 8.2818177558831849e+01 0 0 0
548 1 1.3884030074045262e-01 6.9762084817163654e+01 6.0123572138684544e+01 8.4687415265441985e+01 0 0 0
37 1 1.6725139685319182e-01 7.3230792317574654e+01 5.9987164688252236e+01 8.1060168836262903e+01 0 0 0
1530 3 3.2401451366925169e-02 7.4568804624287651e+01 6.5982402274974660e+01 8.6857820011712960e+01 0 0 0
44 1 1.8569215845774581e-01 7.0964097962068379e+01 5.9206387744021320e+01 7.9610839979919291e+01 0 0 0
43 1 1.3350515273183211e-01 6.9586246491517969e+01 6.0235371666805747e+01 7.9900166269986300e+01 0 0 0
32 1 1.6878224260271019e-01 7.3739514403153692e+01 5.9556293060174987e+01 8.3531770657751082e+01 0 0 0
119 3 5.1493014160708603e-02 7.7460553440781595e+01 6.3961821662602752e+01 8.4670324431569469e+01 0 0 0
1515 1 8.8976514869610501e-02 7.6155930545381125e+01 6.6079405585214317e+01 7.8848184838290081e+01 0 0 0
268 3 7.8307398306955336e-02 7.6380161430317344e+01 5.9649418164707718e+01 8.1850173771056703e+01 0 0 0
535 2 -5.0146531308831876e-01 7.1489078967118701e+01 6.3104390864384278e+01 8.7925915060842584e+01 0 0 0
588 1 1.5528231652863675e-01 7.6230164513435426e+01 6.0633123089077344e+01 8.8022094571322185e+01 0 0 0
543 1 1.3354023144567678e-01 7.0931060560843662e+01 6.2360105931755378e+01 8.4804623422707621e+01 0 0 0
344 1 1.4215901785437146e-01 7.0376271972350352e+01 6.4824707610710092e+01 8.3778556387902611e+01 0 0 0
4835 1 1.4013929634109237e-01 6.9173406874450279e+01 6.2373810294725885e+01 7.9471341734147501e+01 1 0 0
121 1 1.3691072812410740e-01 7.7377021305551239e+01 6.2717993015019964e+01 8.6665484625269727e+01 0 0 0
540 2 -6.0458410388449779e-01 7.0510132926563472e+01 6.4667618233726287e+01 8.6327816906143113e+01 0 0 0
544 3 3.7374555506578505e-02 6.9064288330081908e+01 6.0195737544405546e+01 8.5621383653837043e+01 0 0 0
274 1 1.4032130481238286e-01 7.6618317505760217e+01 6.1794037276702923e+01 8.1592625451878831e+01 0 0 0
271 3 4.3590382163242718e-03 7.6902336763961443e+01 6.0880823565145768e+01 8.0977848479880777e+01 0 0 0
40 1 1.9630605428970258e-01 7.0946551735624610e+01 6.2005774803750846e+01 8.1105817996624566e+01 0 0 0
367 1 3.6580988377086493e-01 7.0431493467903664e+01 6.4788466382161559e+01 8.1450437575179748e+01 0 0 0
39 3 -1.8720004193348697e-01 7.0563607391767874e+01 5.9912810761480813e+01 8.0409698962492044e+01 0 0 0
107 1 1.5068513428844818e-01 7.6743673199526867e+01 5.8356235786193885e+01 8.8092412072476435e+01 0 0 0
538 3 4.9072006166425086e-01 7.0988519969963761e+01 6.3526917480049981e+01 8.6625272966474981e+01 0 0 0
258 3 2.3028633593256020e-02 7.7617955046701738e+01 5.7639235194011853e+01 8.1178105453431172e+01 0 0 0
45 4 -9.3724004048294909e-02 7.0581305990277031e+01 5.8254489640853720e+01 8.2179728953680765e+01 0 0 0
591 1 1.3757647980761109e-01 7.6616745235494832e+01 6.2909549828334796e+01 8.8918306032160572e+01 0 0 0
122 2 -4.6808440392661682e-01 7.8205778759531881e+01 6.5122298348471261e+01 8.4684827838193669e+01 0 0 0
42 3 2.7392083508948225e-02 7.0237396819509954e+01 5.9276992099182401e+01 8.1832599317795243e+01 0 0 0
46 1 1.1694729035695318e-01 6.9673570891554917e+01 5.9873941482957711e+01 8.2688983644193641e+01 0 0 0
113 3 4.7372811845284463e-01 7.6913013114167626e+01 6.0853241746214543e+01 8.4977446171002953e+01 0 0 0
277 1 2.6766296783181309e-01 7.5313596062427465e+01 6.0346712538704210e+01 7.9881436476884858e+01 0 0 0
1525 1 1.4520488432094650e-01 7.3600626650526664e+01 6.5995873821362096e+01 8.4823363929308812e+01 0 0 0
109 2 -5.4747735629703931e-01 7.6999162823174018e+01 5.9597000957779464e+01 8.5595304945586491e+01 0 0 0
266 1 1.2914851939620389e-01 7.7684738433909970e+01 5.8529226115372651e+01 8.3213468636844937e+01 0 0 0
36 3 -1.9933867381599890e-01 7.1481595015464848e+01 6.1199985594732347e+01 8.0546578313254599e+01 0 0 0
29 4 -1.5206394322371705e-01 7.2183101917714978e+01 6.0137689116314853e+01 8.4443597298806935e+01 0 0 0
23 3 3.3830472742607212e-02 7.2259093968284674e+01 5.8384205406250707e+01 8.6278890286255162e+01 0 0 0
111 1 1.5958358271601228e-01 7.4815317654687362e+01 5.9039216530742706e+01 8.5739977630856629e+01 0 0 0
1534 1 1.1615545508211576e-01 7.5422753497205349e+01 6.6138311235817156e+01 8.6132779968859012e+01 0 0 0
41 1 1.2345520540244451e-01 7.1522007476553782e+01 6.1585318773332524e+01 7.9471999392002942e+01 0 0 0
33 3 -1.8903097925829757e-01 7.2903268297349513e+01 6.1028826581100304e+01 8.1116534378987396e+01 0 0 0
26 2 -4.6599190957556075e-01 7.2781193643431720e+01 5.8635712703972182e+01 8.5026826005351339e+01 0 0 0
31 3 -2.1157548987547464e-01 7.2975351806322408e+01 6.1533372133213184e+01 8.2564143928801286e+01 0 0 0
265 2 -5.2733350101322507e-01 7.5508468132055796e+01 5.8825118037900928e+01 8.1051715246565024e+01 0 0 0
542 1 2.0235993182943643e-01 7.1627078089404648e+01 6.1554535930035719e+01 8.6091211828354517e+01 0 0 0
275 4 -4.4392345741036371e-01 7.6054997979607336e+01 6.1172905932887581e+01 7.9759990018170527e+01 0 0 0
123 1 1.3916189808685922e-01 7.6330127474048183e+01 6.4032774268110330e+01 8.4745372037722873e+01 0 0 0
202 1 1.5919310268277320e-01 6.9357343650935789e+01 5.0007370522574412e+01 8.6162079261837818e+01 0 0 0
30 3 4.6242981238120991e-02 7.2926215720805814e+01 6.0340983545612964e+01 8.3612523468769069e+01 0 0 0
110 1 1.1427061665143458e-01 7.5531558457676681e+01 5.8339966379095550e+01 8.4394649150136729e+01 0 0 0
103 3 6.3244271031031940e-03 7.5831162964944255e+01 5.8639262393815315e+01 8.5448681213991492e+01 0 0 0
115 2 -5.9052787177581190e-01 7.5930813699539272e+01 6.1429446532071090e+01 8.4384683287870345e+01 0 0 0
1533 4 -2.8469418873995100e-01 7.4369968410650657e+01 6.4977246304496049e+01 8.7411368501917693e+01 0 0 0
262 3 8.5087777783232607e-02 7.7734755013781339e+01 5.8891232767999554e+01 8.2115678366096049e+01 0 0 0
343 2 -6.8737565759306996e-01 7.0561433749376249e+01 6.3880782450225475e+01 8.1730046020507629e+01 0 0 0
338 3 -1.5148426493552015e-02 6.9903428157319894e+01 6.4083005370968934e+01 8.3012449757463500e+01 0 0 0
582 4 -1.3702474378088514e-01 7.3406390965534257e+01 6.0338008515696671e+01 8.8888104773260338e+01 0 0 0
529 3 2.8564046108158103e-02 7.1707651554058799e+01 6.4142425325251892e+01 8.8936581282505657e+01 0 0 0
301 1 1.6064714710641886e-01 7.8260884726262830e+01 6.3984620704535836e+01 7.8228116106818490e+01 0 0 0
278 2 -5.8989538873667824e-01 7.6865292309509513e+01 5.9470963606380245e+01 7.8209045976761402e+01 0 0 0
628 4 -4.0405060004976606e-01 7.7739897911510411e+01 5.5669686143729578e+01 9.0925315146101084e+01 0 0 0
635 1 2.0647218850129168e-01 7.7771630673045763e+01 5.3436379222354013e+01 9.1950953519475576e+01 0 0 0
626 3 5.9523570934205416e-01 7.6393265294381848e+01 5.6021799550801504e+01 9.0502322573732499e+01 0 0 0
636 1 1.8743578914819295e-01 7.7742380540152169e+01 5.2459708861037925e+01 9.0613700602200893e+01 0 0 0
431 2 -5.5397406183327058e-01 7.6206264270146221e+01 5.4507843275132586e+01 9.3422446801098772e+01 0 0 0
427 3 4.8461742797095847e-01 7.6922173135491931e+01 5.3969810490681958e+01 9.4327308332449419e+01 0 0 0
786 3 3.8748365452118774e-03 7.5849391382842498e+01 5.0930024176882071e+01 9.7925558560965115e+01 0 0 0
409 1 1.8526297418994572e-01 7.0984048900189904e+01 5.3276446935035736e+01 9.5164655213943647e+01 0 0 0
432 3 3.8889570006992849e-02 7.7884491121791086e+01 5.5939033218471486e+01 9.5296812631983187e+01 0 0 0
422 1 1.2525334396234375e-01 7.6754692999343831e+01 4.9819620189591298e+01 9.3337416831114169e+01 0 0 0
621 2 -5.5318323958409543e-01 7.5572296913470637e+01 5.4925372637128312e+01 9.0155731073991845e+01 0 0 0
420 3 3.0449203041011154e-02 7.7139924884474453e+01 5.0811326775984227e+01 9.2980092272326928e+01 0 0 0
435 1 1.6513777579882247e-01 7.6940937361294743e+01 5.6503322738201575e+01 9.5658402163619556e+01 0 0 0
616 1 1.9724680151864810e-01 7.5024426907846589e+01 5.2815697623370617e+01 8.9605283035479161e+01 0 0 0
419 2 -4.4680839070985495e-01 7.6320027447273318e+01 5.1589441139109859e+01 9.2180317331207917e+01 0 0 0
780 3 -1.8965010133580962e-01 7.4511247525648102e+01 5.2835630782647094e+01 9.9239889058919189e+01 0 0 0
785 1 1.2716382228670881e-01 7.4990365092085980e+01 5.3595702009940588e+01 9.8541127777653458e+01 0 0 0
438 1 2.4258862196780631e-01 7.7279717469692073e+01 5.6516982293162641e+01 9.3292794047030000e+01 0 0 0
418 1 2.5063452658067664e-01 7.5124429587284055e+01 5.3327386686198267e+01 9.2244725971427528e+01 0 0 0
414 3 4.4483646681609999e-02 7.4267050930470916e+01 5.2628807176246745e+01 9.2574961908274261e+01 0 0 0
417 4 -1.2620987328978914e-01 7.4607037088234193e+01 5.1546487837898653e+01 9.2639679902542895e+01 0 0 0
625 1 1.4741376944374518e-01 7.3543702058974461e+01 5.6817493720396591e+01 9.0574730703886544e+01 0 0 0
620 3 1.4924013881323452e-02 7.3274357228148844e+01 5.5747849109191030e+01 9.0356597903594150e+01 0 0 0
624 1 1.7151781346988290e-01 7.3686353043583694e+01 5.5532921598405771e+01 9.1430997602404631e+01 0 0 0
411 3 -1.9658592355456952e-01 7.2826527392180040e+01 5.3135850954318620e+01 9.3053513469431437e+01 0 0 0
784 1 1.0619587327234466e-01 7.3528769437964868e+01 5.2520155042272485e+01 9.8686464312040826e+01 0 0 0
412 1 1.7869997779557997e-01 7.3671941591603201e+01 5.4723616176852779e+01 9.4326735233673446e+01 0 0 0
408 3 -1.8824753749325443e-01 7.2991717130252283e+01 5.3842817723865160e+01 9.4450080396240850e+01 0 0 0
402 3 7.6508657379035963e-02 7.1780936768073786e+01 5.6407365702341259e+01 9.4082782648631053e+01 0 0 0
373 1 3.2985098393742063e-01 7.0355674268230743e+01 5.7091218156721176e+01 9.6726052816856452e+01 0 0 0
416 1 1.6701975211525780e-01 7.2362769759610927e+01 5.3742911680306420e+01 9.2256271298375779e+01 0 0 0
700 1 1.3737338833371435e-01 7.0883041630432288e+01 5.3961400721965120e+01 9.8941337175398317e+01 0 0 0
415 1 1.5004150104299491e-01 7.2094993606196283e+01 5.2255574614346429e+01 9.3098156939165335e+01 0 0 0
413 1 1.1473993311216940e-01 7.3543883783572838e+01 5.3173848987079985e+01 9.5155845373056152e+01 0 0 0
405 3 -1.8409776981675061e-01 7.1579372559830674e+01 5.4192679874652690e+01 9.5029004977107704e+01 0 0 0
403 3 -1.8931069436378323e-01 7.0701822465755072e+01 5.5287609137258769e+01 9.4316415074508200e+01 0 0 0
611 2 -5.0626120937305263e-01 7.2823006610403709e+01 5.2128050205579498e+01 8.9770369803532063e+01 0 0 0
701 1 1.9288204836437417e-01 7.0182605202972056e+01 5.5028418538769230e+01 9.7928397617019243e+01 0 0 0
695 2 -4.8801986858285812e-01 6.9959260535547244e+01 5.2812053407081656e+01 9.7248287319866165e+01 0 0 0
406 1 1.8893012900958989e-01 6.9800544720073901e+01 5.5594705423604474e+01 9.5004315732148697e+01 0 0 0
697 3 1.9687444286897154e-02 7.0044895781156114e+01 5.3873258233932724e+01 9.8218342056920974e+01 0 0 0
407 1 1.5482898017908570e-01 7.0273894841686413e+01 5.4868438643972738e+01 9.3342676238613180e+01 0 0 0
410 1 1.4918260542703685e-01 7.1691252803320424e+01 5.4559062226950772e+01 9.6067733323862285e+01 0 0 0
783 3 -1.8338199089402565e-01 7.5401510663489063e+01 5.1489666926792346e+01 9.9315489779034976e+01 0 0 0
632 1 1.8008621931019728e-01 7.7820891828466983e+01 5.4497537869918403e+01 8.9238065916124668e+01 0 0 0
424 3 -2.1780937696047831e-01 7.6723640854578491e+01 5.2592551433000359e+01 9.4932728925690796e+01 0 0 0
428 1 1.3544938506194265e-01 7.5648802166826357e+01 5.2288416483947984e+01 9.5038059354917820e+01 0 0 0
430 2 -5.6484563807777455e-01 7.7834898413060813e+01 5.4500097375162532e+01 9.5285539638038259e+01 0 0 0
83 1 1.5370029299225030e-01 7.7296076812071945e+01 5.0402372289710129e+01 9.0259985194087974e+01 0 0 0
623 2 -6.5298693372778427e-01 7.1930465157271087e+01 5.5337654458404188e+01 9.0070179225453074e+01 0 0 0
602 3 -1.9090708481842047e-01 6.9633378822637866e+01 5.2625417084857929e+01 8.9752191074089467e+01 0 0 0
607 1 1.6466502936672797e-01 7.0147447970422746e+01 5.3346299921929905e+01 9.0462780152976379e+01 0 0 0
609 1 2.0818402375598993e-01 7.0367764308925004e+01 5.0754900163088266e+01 9.0548740663517563e+01 0 0 0
605 3 -2.4667067147075480e-01 7.0346879845431801e+01 5.1323877263234863e+01 8.9552153646208325e+01 0 0 0
441 1 1.8172689137265854e-01 7.8231303072548556e+01 5.8676853627367379e+01 9.4548205498909837e+01 0 0 0
629 2 -6.2750015824126737e-01 7.5994987865888703e+01 5.7227470849981586e+01 9.0439321937950766e+01 0 0 0
627 1 2.9223963955174009e-01 7.1459442093734296e+01 5.5575021780687322e+01 9.0913151483993673e+01 0 0 0
5320 1 3.5538391220235510e-01 7.1527814757414063e+01 5.6498903877625565e+01 9.8721994298552090e+01 1 0 0
790 1 1.0744245407255823e-01 7.5108619903831482e+01 5.0495149423305911e+01 9.7168158546201795e+01 0 0 0
374 2 -6.6306828370134796e-01 7.1249906240516594e+01 5.7542625324694775e+01 9.6920648656697836e+01 0 0 0
789 4 -1.3749277247317468e-01 7.6938263330011907e+01 5.0864129235031037e+01 9.7599548679939005e+01 0 0 0
613 3 5.8885791312271007e-02 7.4040480456344142e+01 5.2663441198534692e+01 8.9075823429625132e+01 0 0 0
401 4 -1.8414881011855141e-01 7.2249613220527891e+01 5.6676936061279434e+01 9.3086342563070289e+01 0 0 0
421 3 -1.9423439825545460e-01 7.7602926956374020e+01 5.1476373790296932e+01 9.4401638024892463e+01 0 0 0
404 1 2.2110702067197005e-01 7.2166878015867439e+01 5.7076133225863259e+01 9.4892506264532187e+01 0 0 0
80 3 -2.7572613202530666e-04 7.6872399729938167e+01 5.0528548507251152e+01 8.9252448441339254e+01 0 0 0
82 1 1.9881902789432576e-01 7.5800780756499421e+01 5.0223329166464495e+01 8.9424262400170193e+01 0 0 0
429 1 1.7227453267638804e-01 7.7005992644357093e+01 5.2608089858666048e+01 9.6029307297965687e+01 0 0 0
574 1 2.0048105922940776e-01 6.9424229829805228e+01 6.0410368262684166e+01 9.1655111269458786e+01 0 0 0
787 1 2.1893305894486401e-01 7.6325760148864688e+01 5.1812254794040484e+01 9.9898925064858730e+01 0 0 0
791 2 -4.2281215524299243e-01 7.7968988831970478e+01 5.1438797595834380e+01 9.8826560504062783e+01 0 0 0
521 3 6.2295298592490522e-01 6.9162714598766712e+01 6.5639013114707993e+01 9.2595256494417271e+01 0 0 0
423 1 1.3568966506660993e-01 7.8033980083413908e+01 5.0331398485341026e+01 9.2494119263168685e+01 0 0 0
788 1 1.3094404452210576e-01 7.4821092123477072e+01 5.0683824126639898e+01 9.9843958498924565e+01 0 0 0
426 1 1.6894709137275027e-01 7.7640370699873500e+01 5.0642299280008380e+01 9.5187191640135765e+01 0 0 0
587 1 1.4729202281149872e-01 7.6664505378867773e+01 6.0421869489330831e+01 8.9731709188254072e+01 0 0 0
433 3 -2.0850671797403519e-01 7.8222067075832015e+01 5.6490340023286009e+01 9.3888633943005459e+01 0 0 0
5314 2 -6.6733558803826121e-01 7.1886216491651481e+01 5.5855062485604954e+01 9.9400608202572883e+01 1 0 0
617 3 1.3033437516577359e-01 7.4361671292898848e+01 5.5258163734855792e+01 8.9343490449647618e+01 0 0 0
1911 1 1.4549924959659491e-01 7.8140713364830390e+01 6.6227596387578686e+01 9.6040917611741364e+01 0 0 0
1907 2 -4.6337048987298224e-01 7.7927906999458713e+01 6.5117271705330566e+01 9.4265392291944366e+01 0 0 0
572 2 -5.4193756101738189e-01 6.9655955572333625e+01 5.8442320117678378e+01 9.4089545495850615e+01 0 0 0
1893 3 -1.7660476842225287e-01 7.7964951799142341e+01 6.1800704473247059e+01 9.7159203000148665e+01 0 0 0
532 2 -6.5527784495741026e-01 6.9240035225377127e+01 6.1808476048257113e+01 8.9899428906942362e+01 0 0 0
389 3 5.0585843088125582e-01 7.5602076889286423e+01 5.9722861356390133e+01 9.4922114328360834e+01 0 0 0
504 1 2.6272392696832836e-01 7.0210078091420883e+01 6.4146320420039714e+01 9.7391923766161113e+01 0 0 0
1906 1 1.5812030482892536e-01 7.7851724257860553e+01 6.2916965961572302e+01 9.4244259053221199e+01 0 0 0
1537 3 -2.0472613917222102e-01 7.3162117718117514e+01 6.6267589190019351e+01 9.4841964604258649e+01 0 0 0
393 1 1.5776653129474394e-01 7.5079873844319437e+01 6.1287406697283480e+01 9.3412764520740012e+01 0 0 0
378 1 1.8145056531565734e-01 6.9907056337306287e+01 5.9194210418024937e+01 9.6328814270632492e+01 0 0 0
397 1 2.2361241247216324e-01 7.5771757884168437e+01 5.8378422450419244e+01 9.2544183472339014e+01 0 0 0
578 1 1.5063637067269883e-01 6.9251834841071343e+01 5.8272732014719445e+01 9.0335796872052398e+01 0 0 0
1541 1 1.3941844862940422e-01 7.4025936062650871e+01 6.5668231885584134e+01 9.5331480561894310e+01 0 0 0
576 3 2.5435276366594737e-02 7.1092008714952328e+01 5.9337455324471286e+01 8.9538759332430189e+01 0 0 0
391 2 -5.8232581501771663e-01 7.6191007198606684e+01 5.8723342831836568e+01 9.5445640843510404e+01 0 0 0
526 3 -1.8690143062493367e-01 7.1188796829115034e+01 6.3586732234925130e+01 9.0267828046707791e+01 0 0 0
387 1 1.7157383652990640e-01 7.3817618666500366e+01 6.1113897707592137e+01 9.7497814633610062e+01 0 0 0
1908 3 1.2857090779619511e-02 7.7447970449145970e+01 6.5998808918275230e+01 9.5206196306135325e+01 0 0 0
392 3 -1.7979826438139621e-01 7.5164288819453589e+01 5.9310531019238852e+01 9.2486014439098440e+01 0 0 0