LAMMPS data file via write_data, version 23 Jun 2022, timestep = 500000

8928 atoms
4 atom types

67.53353193499908 107.66646806502033 xlo xhi
52.644906412581136 97.35509358743617 ylo yhi
76.69968706563947 123.30031293435198 zlo zhi

Masses

1 1.008
2 15.999
3 12.011
4 14.007

Atoms # charge/kk

250 1 1.4439374104188926e-01 7.6013751531118899e+01 5.5436755284972833e+01 7.8818832234891801e+01 0 0 0
260 1 1.5739855235990513e-01 7.3408114984350348e+01 5.8109257062482115e+01 7.9625818372705083e+01 0 0 0
243 1 1.7920878284802538e-01 7.4678918608394895e+01 5.4507890450121963e+01 8.0101192451817298e+01 0 0 0
254 3 6.0561696881010152e-01 7.5368149383310225e+01 5.8088408721771707e+01 7.8167708072870127e+01 0 0 0
478 2 -6.0745727261393989e-01 7.5082221921586225e+01 5.6532015088489608e+01 8.2206964952470685e+01 0 0 0
484 1 3.2635525974663815e-01 7.4332730296246879e+01 5.6578390727810458e+01 8.2897061437090343e+01 0 0 0
258 3 1.4145744542837926e-02 7.3343840843932057e+01 5.9211458836219109e+01 7.9255252805014621e+01 0 0 0
261 3 -2.5866148581058998e-03 7.2061944988711943e+01 5.9428265128148617e+01 7.8334077782811164e+01 0 0 0
7609 3 -1.9003894608524399e-01 7.4196934274970303e+01 5.3268237228449543e+01 8.3134362060421054e+01 0 1 0
264 1 1.1000703670569528e-01 7.1728732160997168e+01 5.8400509217465135e+01 7.8021264670030888e+01 0 0 0
7614 1 1.8533489283520618e-01 7.4059794873978632e+01 5.4190859500943915e+01 8.2471448003868360e+01 0 1 0
256 4 -4.3790808103750384e-01 7.4630198348291842e+01 5.9337007820596021e+01 7.8438616176245446e+01 0 0 0
63 1 1.7331778601201270e-01 7.1328245616437556e+01 5.4446028686392673e+01 8.3917044957794545e+01 0 0 0
7613 1 1.7116730166269228e-01 7.3905320081593345e+01 5.3630388459598649e+01 8.4172182989226698e+01 0 1 0
473 3 -2.0175352955811673e-02 7.5838378237892556e+01 5.7766277553695154e+01 8.2552676695381649e+01 0 0 0
479 1 1.5289146081922889e-01 7.5318148643536247e+01 5.8740163803057619e+01 8.2577193015558649e+01 0 0 0
477 1 2.1710500607848421e-01 7.5889795592951316e+01 5.5665272723101083e+01 8.3598829010684398e+01 0 0 0
471 3 1.1224342178042068e-01 7.6622790256518471e+01 5.7653708627871602e+01 8.3881049371625892e+01 0 0 0
476 1 1.7191141927501902e-01 7.5470836338000211e+01 5.6245920546696908e+01 8.5224151491226053e+01 0 0 0
472 3 -2.1791857029744199e-01 7.6301558541287235e+01 5.6274772680549255e+01 8.4464302525107257e+01 0 0 0
98 2 -6.2674639297197388e-01 7.3128329168264926e+01 5.5543228740101227e+01 8.5037734961915902e+01 0 0 0
97 2 -5.9775346406131835e-01 7.2417792915097763e+01 5.6600863489503730e+01 8.7035593372650908e+01 0 0 0
95 3 5.8451164225611130e-01 7.2676786967546775e+01 5.5516179910585912e+01 8.6217812836513588e+01 0 0 0
99 3 9.7437624196553552e-02 7.2838597262546472e+01 5.7928797404509439e+01 8.6385237627466282e+01 0 0 0
102 1 1.8717548688319510e-01 7.3707915596175098e+01 5.7909239686963012e+01 8.5691976226566311e+01 0 0 0
94 4 -4.1454919347137315e-01 7.2309661066269598e+01 5.4161261424062737e+01 8.6721804066201969e+01 0 0 0
96 1 3.1784202556629132e-01 7.1922030852051307e+01 5.4237553539919098e+01 8.7694486103599161e+01 0 0 0
59 2 -5.6889135698131921e-01 7.1736413072250770e+01 5.5829087071856122e+01 8.1887882094451541e+01 0 0 0
480 1 1.5836564551187723e-01 7.6474247009226616e+01 5.8197091738961625e+01 8.1789705323715438e+01 0 0 0
55 3 4.7597196681636450e-01 7.0580835465931855e+01 5.5374352388079686e+01 8.1567135254596280e+01 0 0 0
60 3 3.2650665253469283e-02 7.0247793473998016e+01 5.4329450930112458e+01 8.3667492379170952e+01 0 0 0
100 3 -2.1509987103931183e-01 7.1658735866477215e+01 5.8496690363448437e+01 8.5516418296075898e+01 0 0 0
104 1 1.3698095068415614e-01 7.0759618673912996e+01 5.7813863846379505e+01 8.5675012284853750e+01 0 0 0
58 2 -5.6235390886889958e-01 6.9686949638779879e+01 5.4611045683385072e+01 8.2344207352189741e+01 0 0 0
62 1 1.3778993543973422e-01 6.9983457112185064e+01 5.5046525720996812e+01 8.4499540303425889e+01 0 0 0
57 1 1.5685554384821251e-01 7.1150240387645681e+01 5.6566560843677550e+01 7.9796736004362785e+01 0 0 0
469 2 -5.9796698026132911e-01 7.6172770028114357e+01 5.8706972382615739e+01 8.4910423822086713e+01 0 0 0
245 3 1.2924410046401008e-01 7.5260136514066531e+01 5.5670149721256784e+01 7.8015061197395653e+01 0 0 0
101 3 -2.1362125134005523e-03 7.3131393185423008e+01 5.8913446280582882e+01 8.7542789871795307e+01 0 0 0
257 2 -6.2035149788020638e-01 7.6622510629393389e+01 5.8115087248796272e+01 7.8061634238505192e+01 0 0 0
241 3 2.4237814641777433e-02 7.3743106312834328e+01 5.4244082092016249e+01 7.9582723498279762e+01 0 0 0
249 2 -6.0775692579452223e-01 7.4554379206743064e+01 5.6979707391877717e+01 7.7933499815743360e+01 0 0 0
467 3 5.3928551558364801e-01 7.7251047514754362e+01 5.9509422113697376e+01 8.5291580020462192e+01 0 0 0
263 1 1.6375564702433348e-01 7.2431120010208161e+01 5.9798192816348788e+01 7.7350171501681956e+01 0 0 0
110 1 1.7224962888046516e-01 7.2402483080808182e+01 5.7417633506809899e+01 8.3811523638179963e+01 0 0 0
103 3 3.1105442754792809e-02 7.2113758838137230e+01 5.8529221173339515e+01 8.4014540566241223e+01 0 0 0
106 2 -6.0596773505029333e-01 7.4356060553152005e+01 5.9675876081761679e+01 8.7271489425550897e+01 0 0 0
93 1 1.1928291383580014e-01 7.4341181099048313e+01 5.3645734084466817e+01 8.6571497910892546e+01 0 0 0
242 3 -1.9631919411119936e-01 7.4145066032334782e+01 5.4579234768772054e+01 7.8085475253249641e+01 0 0 0
50 1 1.3721002879043681e-01 7.0038812367413456e+01 5.7789622516310899e+01 8.1630019938698595e+01 0 0 0
7610 1 1.7279183292653877e-01 7.6321358827185421e+01 5.3433201455875505e+01 8.3635530571903558e+01 0 1 0
246 1 2.2419891864015190e-01 7.4440302347059273e+01 5.3639515232038377e+01 7.7591012856202155e+01 0 0 0
52 3 -2.6239011965301556e-01 7.0331052662669435e+01 5.5828922189452371e+01 8.0113744208973671e+01 0 0 0
56 1 1.9248639343276330e-01 7.0444105520677553e+01 5.4926519262405634e+01 7.9386711534813244e+01 0 0 0
161 1 1.5350999640244567e-01 6.9563747207459201e+01 5.8702199850750418e+01 7.7759625313288112e+01 0 0 0
21 1 1.1190524775768104e-01 6.9182411753775412e+01 5.8719108921193467e+01 8.5770355544420454e+01 0 0 0
22 1 1.8894628405181493e-01 6.8646407122762014e+01 5.8966459662154911e+01 8.4089494832969507e+01 0 0 0
69 1 1.6184751561308072e-01 6.8658534138048310e+01 5.3790563043116549e+01 8.5718319113609709e+01 0 0 0
49 3 -1.9144027896778437e-01 6.9016285408609662e+01 5.6576851904640641e+01 8.0044141906305342e+01 0 0 0
247 1 1.8198913174718651e-01 7.3256476901040955e+01 5.4836915062362536e+01 7.7468595471839635e+01 0 0 0
111 1 1.1528017929242884e-01 7.1207224348946383e+01 5.8451654361305216e+01 8.3314336252804708e+01 0 0 0
48 3 3.3359297688454213e-02 6.9033854373919212e+01 5.7828847144603465e+01 8.1089491159906970e+01 0 0 0
618 1 1.6183973685427197e-01 6.8106972192412016e+01 5.6519857520865820e+01 8.7523238238767732e+01 0 0 0
107 1 1.7658637981801589e-01 7.2264755975171084e+01 5.9604208329902001e+01 8.7637499240715982e+01 0 0 0
53 1 1.7354789740515858e-01 6.8761538284514998e+01 5.6952535809221239e+01 7.8993320814907108e+01 0 0 0
18 3 -2.6394173066924298e-01 6.8308446477523248e+01 5.9062428894915939e+01 8.5165962241843616e+01 0 0 0
51 1 1.5030968152893154e-01 6.8474648190549047e+01 5.7474860533747780e+01 8.2003189885666586e+01 0 0 0
54 1 1.6860103761079151e-01 6.8113349659660457e+01 5.5886815362296602e+01 8.0321189058676509e+01 0 0 0
112 1 3.3090696304660594e-01 7.4956799468415824e+01 5.9090476559009943e+01 8.6702637683522212e+01 0 0 0
622 1 1.0594488129600221e-01 6.9571712909342637e+01 5.8201411294193385e+01 8.7758353116416629e+01 0 0 0
47 2 -3.8618533761148766e-01 6.8609201787922572e+01 5.9014766624771219e+01 8.0540863379821047e+01 0 0 0
244 1 1.6197170079041598e-01 7.3152400790632285e+01 5.5098338564770657e+01 8.0033231804753186e+01 0 0 0
76 2 -5.9232356560080723e-01 6.9870387149441370e+01 5.3258200494739064e+01 8.7783056370914679e+01 0 0 0
90 3 -2.7171502422111127e-02 7.3410905163328295e+01 5.3162853090502900e+01 8.6987882139255291e+01 0 0 0
61 3 -1.8959777542218245e-01 6.9658581490454111e+01 5.2947589835062772e+01 8.3933380128575109e+01 0 0 0
3200 1 1.6552993244181050e-01 6.7952811306898354e+01 5.2801405661498713e+01 7.8860745587181867e+01 0 1 0
4830 1 1.2078272598012109e-01 7.7012298050874747e+01 6.6004406741267630e+01 8.6759922811001601e+01 0 0 0
105 1 1.5147173452597421e-01 7.1275273085205626e+01 5.9502708987711394e+01 8.5924280168604824e+01 0 0 0
126 3 -8.6816026915834989e-03 7.2922294939752049e+01 6.7525263520608334e+01 8.3987465336810061e+01 0 0 0
259 1 3.0575675830362775e-01 7.5262564593717499e+01 6.0010252877287357e+01 7.9015080051872005e+01 0 0 0
1594 2 -6.9556557791397666e-01 7.3715845094446038e+01 6.7055982638725823e+01 8.7044560598681358e+01 0 0 0
464 1 1.6608308853162196e-01 7.6886184948112273e+01 5.9198968151365186e+01 8.7945096540546942e+01 0 0 0
240 2 -5.9900755185645305e-01 7.1199188368049406e+01 5.3333915149232141e+01 7.8341932598026077e+01 0 0 0
253 1 1.6514683046918691e-01 7.7171382824737407e+01 5.5463919976031328e+01 7.6840252830415437e+01 0 0 0
109 2 -5.5063217142284793e-01 7.3089819647117096e+01 5.9600898957077582e+01 8.3908090815779090e+01 0 0 0
266 1 1.3133632337144910e-01 7.3088092771020698e+01 5.9551677533168501e+01 8.1357414881013071e+01 0 0 0
181 1 3.3973347136159865e-01 7.0551502508705553e+01 6.0470843517479878e+01 7.6922571647183560e+01 0 0 0
7608 2 -5.7391592861761431e-01 7.6351250986846992e+01 5.2952986654541114e+01 8.0805067691328247e+01 0 1 0
1512 1 1.9183236002442067e-01 7.0296529833328250e+01 6.7269982622516793e+01 7.7438401685945735e+01 0 0 0
483 1 1.2527418125177528e-01 7.7222215461683021e+01 5.5389201735537235e+01 8.6252895339081164e+01 0 0 0
239 2 -5.9314382991536274e-01 7.3179692364704437e+01 5.2862541859462034e+01 7.9751804481865577e+01 0 0 0
3197 1 1.4999239092091005e-01 6.8741563955840761e+01 5.4282621250285921e+01 7.7137024556105615e+01 0 1 0
585 1 1.6216268173071294e-01 6.9525374313689071e+01 6.2113646579191403e+01 8.7954166840141042e+01 0 0 0
1508 3 -2.1961451552497477e-01 7.1197566834947494e+01 6.7347963954217875e+01 7.8125946006702890e+01 0 0 0
45 4 -9.1828549023324477e-02 6.7553865901772753e+01 5.9930787509928798e+01 8.1462377850340872e+01 0 0 0
303 2 -3.8608900553411180e-01 7.6047312667719609e+01 6.6498002408103375e+01 8.0931330100430444e+01 0 0 0
20 3 -1.9332912882588132e-01 6.8034786004315492e+01 6.0519330927993536e+01 8.5537031200969849e+01 0 0 0
462 3 -2.1221117611568651e-02 7.7483224372516815e+01 6.1195626948220124e+01 8.7223567361056212e+01 0 0 0
128 1 1.5242392471145003e-01 7.4024239557490461e+01 6.7354229188144501e+01 8.4376248505699238e+01 0 0 0
468 1 2.8937650646651653e-01 7.5920747801660980e+01 6.0618501809285206e+01 8.6210981047610900e+01 0 0 0
475 3 3.1736619884735584e-02 7.7541742365867108e+01 5.5589864818323456e+01 8.5173006086406431e+01 0 0 0
119 3 4.4956564894662369e-02 7.3123840075656474e+01 6.4236301321730068e+01 8.3814777491397280e+01 0 0 0
4827 3 -2.0940779689832362e-01 7.6729779189506388e+01 6.5782073298236909e+01 8.5678600289849612e+01 0 0 0
38 1 1.2587186679247009e-01 6.8796871405104866e+01 6.3821585792058457e+01 7.8435507749719918e+01 0 0 0
26 2 -3.7281415473476509e-01 6.7964517550808935e+01 6.2239027115253172e+01 8.3718710062184130e+01 0 0 0
4829 1 1.7849032583759591e-01 7.5661241988412627e+01 6.5523613846787143e+01 8.5678864829832037e+01 0 0 0
272 1 9.2087436457553268e-02 7.4282974310444871e+01 6.3335112320265651e+01 8.0290549524021642e+01 0 0 0
114 3 -2.4326960587929700e-01 7.3805851163192770e+01 6.1713697246775858e+01 8.3647668676959327e+01 0 0 0
267 2 -5.1883582134522510e-01 7.4363142624094309e+01 6.1111271502437269e+01 8.0279502211050399e+01 0 0 0
294 3 4.9344951873584064e-01 7.6028027572233995e+01 6.4502068722433521e+01 7.7071850518360293e+01 0 0 0
285 1 2.1979095608268570e-01 7.4494694696324629e+01 6.1295810656328690e+01 7.6965681440321760e+01 0 0 0
309 1 2.1144417895480297e-01 7.7180011705208173e+01 6.5787823093821174e+01 8.2614021316035632e+01 0 0 0
271 3 -2.2740222872584148e-02 7.2277806751773326e+01 6.2411049014923307e+01 7.9932049424436713e+01 0 0 0
265 2 -5.1593996719529178e-01 7.1147077410567206e+01 6.0295860788147074e+01 7.9046403836069999e+01 0 0 0
33 3 -1.7447653935773011e-01 6.8305424214829657e+01 6.3223237968066243e+01 7.9257174696934655e+01 0 0 0
262 3 6.3770253135116861e-02 7.3197825334311332e+01 6.0204974708281156e+01 8.0429336411754520e+01 0 0 0
4814 3 -2.2758686829493080e-01 7.7170243020600566e+01 6.1795606194623907e+01 8.1565433317012506e+01 0 0 0
454 1 1.6344661324473395e-01 7.3924969260358282e+01 6.2158758483636376e+01 8.7429416925850077e+01 0 0 0
582 4 -9.1707949723030577e-02 6.8510924132276514e+01 6.3160897956278369e+01 8.6838943961847860e+01 0 0 0
274 1 1.1120448438942057e-01 7.1920966718413737e+01 6.3118299241367360e+01 8.0787061100876556e+01 0 0 0
587 1 1.2518370868806186e-01 7.1811851357234445e+01 6.2766501455009589e+01 8.6659747212681339e+01 0 0 0
123 1 1.3550501753206995e-01 7.2109398926115517e+01 6.3842418784299021e+01 8.3568870934059703e+01 0 0 0
117 1 1.7616721224547990e-01 7.4808771998876637e+01 6.1121003285990533e+01 8.3724246528761739e+01 0 0 0
125 4 -1.1941834572644346e-01 7.2236453958236581e+01 6.6608909783556030e+01 8.3959826119861475e+01 0 0 0
583 3 8.2499803593530149e-03 6.9566230920777116e+01 6.2841997368573715e+01 8.7118786688331809e+01 0 0 0
120 1 1.8127420139310607e-01 7.5004967529661286e+01 6.3127274876351194e+01 8.4763238760573913e+01 0 0 0
115 2 -5.5993412975871704e-01 7.1355202389467593e+01 6.1369203908891272e+01 8.4109396854891571e+01 0 0 0
118 1 1.4203055354392294e-01 7.3866107419433419e+01 6.2026725018400953e+01 8.2553543188813464e+01 0 0 0
4818 1 1.5032737620532663e-01 7.6413359128731088e+01 6.2531198846034037e+01 8.2054020485652373e+01 0 0 0
308 3 -1.9129289919384859e-01 7.7055320707712639e+01 6.6977060008811421e+01 8.4721463294176516e+01 0 0 0
364 1 1.5013945868642212e-01 6.9501579906820908e+01 6.4620802233583277e+01 7.6748141480716725e+01 0 0 0
1534 1 1.1138896858907442e-01 6.8172938434751828e+01 6.6245233243792882e+01 8.2726699769058243e+01 0 0 0
268 3 8.8914879468994040e-02 7.1820025786090156e+01 6.0922226667595254e+01 8.0158541572559784e+01 0 0 0
456 2 -5.0134649814313736e-01 7.5897806411530780e+01 6.3128197748455825e+01 8.6969527801218902e+01 0 0 0
1511 3 3.5571531615385232e-02 7.0802342425038745e+01 6.7079575219200905e+01 7.9659537562078853e+01 0 0 0
584 3 -1.8022442615476805e-01 7.0906946289541750e+01 6.3427951326095865e+01 8.6561538081859055e+01 0 0 0
276 3 5.9109829301270356e-01 7.2277141099237227e+01 6.3375945921747388e+01 7.7529911914223291e+01 0 0 0
455 1 1.0027196294107911e-01 7.3947104199731186e+01 6.3879533956962199e+01 8.7661952542869543e+01 0 0 0
31 3 -2.3766877146936510e-01 6.7773657200146204e+01 6.4188766214606801e+01 8.0388909522488518e+01 0 0 0
4817 1 1.7755157495744683e-01 7.6558861315104281e+01 6.0835609421060596e+01 8.1374909355586368e+01 0 0 0
452 3 4.2282214519910755e-03 7.4655461607435029e+01 6.2995535887263074e+01 8.7691117661841474e+01 0 0 0
295 3 -2.0788533320779762e-01 7.5984484422045767e+01 6.5050971065177805e+01 7.8483700599843971e+01 0 0 0
459 3 7.8690808529915987e-02 7.6986858761919436e+01 6.2569803391331341e+01 8.7781919240855231e+01 0 0 0
1513 1 1.6088337153187723e-01 7.1844993838779516e+01 6.6545872187631446e+01 7.7730321849035704e+01 0 0 0
113 3 4.7400411617564653e-01 7.2530909559373228e+01 6.0910349609256116e+01 8.3954904748943093e+01 0 0 0
277 1 2.9658803282307894e-01 7.1192663900730921e+01 6.2090659241436256e+01 7.8424758948784699e+01 0 0 0
298 1 1.9056115789468953e-01 7.5784371121062520e+01 6.4177883371208296e+01 7.9181236980217690e+01 0 0 0
299 1 2.2039230048440347e-01 7.7059695270645690e+01 6.5350963080539913e+01 7.8835125800551552e+01 0 0 0
466 4 -4.1522985503912530e-01 7.6886152506982214e+01 6.0818710976623422e+01 8.5870797886574977e+01 0 0 0
306 4 -9.2220016194313442e-02 7.6040753294386946e+01 6.7242521280533083e+01 8.2489030901538314e+01 0 0 0
275 4 -4.6935209552401891e-01 7.1544958103566373e+01 6.3054207875299767e+01 7.8775402614108771e+01 0 0 0
1530 3 3.0412771615388298e-02 6.8734611751121108e+01 6.6336232952804053e+01 8.3772914518030760e+01 0 0 0
304 1 9.3868574367978685e-02 7.3884330812133186e+01 6.6597225298208897e+01 8.0624742577686945e+01 0 0 0
1533 4 -2.0410322962296323e-01 6.8937296502171677e+01 6.5304944317412378e+01 8.4268679598804297e+01 0 0 0
358 2 -4.5535740232206889e-01 6.8309276035181810e+01 6.6421715719029919e+01 7.6968417275087077e+01 0 0 0
25 1 1.9504993754093022e-01 6.9066808161571444e+01 6.1036281896835938e+01 8.5575715899701365e+01 0 0 0
122 2 -4.7947114170940613e-01 7.3160179027108782e+01 6.5368111518217248e+01 8.4569727741921639e+01 0 0 0
1600 1 3.3426142440996626e-01 7.3435743203498589e+01 6.6486868531728831e+01 8.6245426916773013e+01 0 0 0
300 3 2.5562413356494677e-02 7.4945933538852429e+01 6.6808167758855930e+01 8.0195700607904229e+01 0 0 0
44 1 2.1880542416249835e-01 6.8408646090482492e+01 6.0390634608402159e+01 7.8868207620331773e+01 0 0 0
116 3 -2.0798457036225126e-01 7.3936184659206248e+01 6.2954658165020064e+01 8.4490937821126309e+01 0 0 0
302 1 1.7858287614475318e-01 7.5081592622264026e+01 6.6938631322458917e+01 7.7956243018559491e+01 0 0 0
124 1 1.0124530380611570e-01 7.3422735391902194e+01 6.4259698969865724e+01 8.2698902844261852e+01 0 0 0
32 1 1.8741631992877453e-01 6.8981798958788218e+01 6.3038186582318332e+01 8.2132936080829339e+01 0 0 0
586 3 -1.6904609226614015e-01 7.1095858951547768e+01 6.4772206045666834e+01 8.7375107814969937e+01 0 0 0
301 1 1.8781563992326922e-01 7.3920786196778195e+01 6.5796148753698873e+01 7.8470569562895392e+01 0 0 0
269 3 8.5566748730652494e-04 7.3832235702336277e+01 6.2391478288538089e+01 7.9890863139261768e+01 0 0 0
591 1 1.4684294916938612e-01 7.2093913849983466e+01 6.5240239816878301e+01 8.7272261015823318e+01 0 0 0
307 3 4.5935418017360743e-02 7.6754073969176844e+01 6.6666677059748366e+01 8.3173179191111473e+01 0 0 0
1515 1 1.0259716985248239e-01 7.1612562677319687e+01 6.6388774582980830e+01 8.0064342671783308e+01 0 0 0
588 1 1.9193519167985879e-01 7.0869821781681694e+01 6.3633598329972067e+01 8.5403129534491299e+01 0 0 0
121 1 1.4686475970349835e-01 7.3477603857119036e+01 6.2771248707076253e+01 8.5507748654758998e+01 0 0 0
590 1 1.5661644484781245e-01 7.0480716968392230e+01 6.5626798473251256e+01 8.6977890146268408e+01 0 0 0
35 1 1.1280296516793410e-01 6.8334197620703790e+01 6.5171591941171272e+01 8.0464606663119937e+01 0 0 0
273 1 1.6170311340140478e-01 7.4128584869064312e+01 6.2799745274446515e+01 7.8855811017748124e+01 0 0 0
290 2 -5.2928278439309717e-01 7.6157147317861316e+01 6.3093803999143475e+01 7.7118695620985562e+01 0 0 0
279 2 -6.0876313698595774e-01 7.2775649760017856e+01 6.4535216800399795e+01 7.7390340346063539e+01 0 0 0
37 1 1.5692946977270927e-01 6.9213874693426604e+01 6.2728356822845200e+01 7.9604652519718741e+01 0 0 0
297 3 -1.9468043380402719e-01 7.4934061158537190e+01 6.6142870127302473e+01 7.8692417866140701e+01 0 0 0
270 1 1.3866494991244530e-01 7.1358540557963678e+01 6.0827298944982083e+01 8.1164802374380912e+01 0 0 0
1516 1 1.0426875916806794e-01 7.0008403914566202e+01 6.6217082337477436e+01 7.9612537853324028e+01 0 0 0
30 3 4.0248756395882636e-02 6.7930880892755070e+01 6.3378709709840130e+01 8.1737263154373096e+01 0 0 0
64 3 1.0517257933121657e-01 6.8873969471241040e+01 5.2831456671790548e+01 8.5275369988089707e+01 0 0 0
3193 3 -1.7360123465684832e-01 6.8134301662773851e+01 5.3402532983113950e+01 7.6748244662261214e+01 0 1 0
599 1 1.4774630863286989e-01 7.0192426541059831e+01 6.7509632487305311e+01 8.8277931354765499e+01 0 0 0
7607 3 -2.4722754793314455e-01 7.5614943978080092e+01 5.2686038005820805e+01 8.3169536732673578e+01 0 1 0
625 1 1.2533224989860622e-01 6.8686309197043713e+01 6.0053128479173552e+01 8.8299894108795655e+01 0 0 0
643 3 -1.2289743508937679e-02 7.5991220662352120e+01 5.6154313300966407e+01 9.1539868900475469e+01 0 0 0
649 1 3.0764030480915078e-01 7.5264596105702566e+01 5.5874129811441449e+01 9.3350104960161147e+01 0 0 0
637 2 -4.8859183584938015e-01 7.3805910201200248e+01 5.5329686131151199e+01 9.2294088822531080e+01 0 0 0
646 1 1.5200846583825131e-01 7.6898878254024368e+01 5.5535732110891757e+01 9.1323008611593835e+01 0 0 0
640 3 9.9635235458208543e-02 7.4678631601049489e+01 5.5456437728940692e+01 9.1087368018383472e+01 0 0 0
633 3 8.7863556784987893e-03 7.2587691433086434e+01 5.6039211083355532e+01 9.2021905055309603e+01 0 0 0
630 3 6.5621029652689448e-03 7.2650233471551047e+01 5.6713370631228905e+01 9.0619107415706665e+01 0 0 0
641 3 1.2783526594722372e-02 7.6068448850545892e+01 5.7488684150705971e+01 9.0732435869824897e+01 0 0 0
647 4 -4.6436615045451551e-01 7.6060991998181308e+01 5.6431085373146615e+01 9.3044147955988322e+01 0 0 0
648 3 5.8404642043256694e-01 7.7286369604189616e+01 5.5981530169128533e+01 9.3704101436077650e+01 0 0 0
645 1 1.5762544423786931e-01 7.6316721472612215e+01 5.8352853692228528e+01 9.1424334829332622e+01 0 0 0
628 4 -4.4074743646860842e-01 7.2293754263389658e+01 5.8203183758946793e+01 9.0683039791416277e+01 0 0 0
635 1 1.5816718655290551e-01 7.2412299022346744e+01 5.6821806411845323e+01 9.2821927627775139e+01 0 0 0
644 1 1.2342524097057914e-01 7.6995824394026755e+01 5.7455067311350888e+01 9.0074859057179580e+01 0 0 0
631 1 3.3121169697929825e-01 7.3150912361352994e+01 5.8770532541181367e+01 9.0476951832946440e+01 0 0 0
626 3 5.8343393295063639e-01 7.1091247005134903e+01 5.8614436736379368e+01 8.9957856197420767e+01 0 0 0
634 3 7.6677432322645109e-02 7.4023197722832649e+01 5.6352800325088246e+01 8.9982481303539089e+01 0 0 0
632 1 1.6736834949174353e-01 7.1745707755470761e+01 5.6243408601563360e+01 9.0013687474226927e+01 0 0 0
639 2 -4.4221596023750648e-01 7.4899465647114951e+01 5.7550534675548455e+01 8.9868125568158035e+01 0 0 0
642 1 1.7021656894861878e-01 7.5019315545426295e+01 5.4564003048010896e+01 9.0562714286666989e+01 0 0 0
437 1 1.9493182970261738e-01 7.2469074772848344e+01 5.8544589085262473e+01 9.3082004793859056e+01 0 0 0
636 1 1.0676187067389904e-01 7.1594431516621825e+01 5.5523665843635619e+01 9.2025871176518606e+01 0 0 0
651 2 -5.5527849799220130e-01 7.7395015479860888e+01 5.4821364525506603e+01 9.4213130285900718e+01 0 0 0
443 1 1.2791754273147429e-01 7.4811693833196443e+01 5.8679336558174377e+01 9.4341652644209532e+01 0 0 0
799 3 5.0522788404293695e-01 7.6792239576341018e+01 5.8147872419789444e+01 9.8288238283138554e+01 0 0 0
431 2 -5.6624477128924589e-01 7.1164997813952894e+01 5.7816009127057612e+01 9.7329805622725786e+01 0 0 0
427 3 4.7651286223245798e-01 7.1765081043891882e+01 5.7152605850736407e+01 9.6429877964224517e+01 0 0 0
792 3 2.2436736917926879e-02 7.4487153516289268e+01 5.5268619009039710e+01 9.7362188105710104e+01 0 0 0
786 3 2.6451228797270535e-02 7.2332516985366340e+01 5.5404699790578526e+01 9.9595867371677883e+01 0 0 0
797 1 1.8892501360092578e-01 7.6536404072849251e+01 5.5547176495926728e+01 9.6425075104201255e+01 0 0 0
796 3 -2.2178143322588664e-01 7.5895917644480235e+01 5.7402210184410734e+01 9.7290061508532418e+01 0 0 0
793 3 -1.9352558506839526e-01 7.6000297684211205e+01 5.5897537436510646e+01 9.7334827105319960e+01 0 0 0
798 1 2.0657232496580177e-01 7.6597968478509131e+01 5.5536331030780886e+01 9.8168320319753619e+01 0 0 0
789 4 -1.8442961714782558e-01 7.2522554402591041e+01 5.4533917308585806e+01 9.8900139053789772e+01 0 0 0
791 2 -4.3267804434847662e-01 7.4224711340108314e+01 5.4572651222458603e+01 9.8494589223877810e+01 0 0 0
795 1 1.2987907683478631e-01 7.3806872341611651e+01 5.6118441758472663e+01 9.7081792078192890e+01 0 0 0
430 2 -5.8774433644657120e-01 7.2544027700975093e+01 5.7506967309178542e+01 9.5310430413799409e+01 0 0 0
794 1 1.0328995790792990e-01 7.4263095908738975e+01 5.4724388390944675e+01 9.6383620102055929e+01 0 0 0
800 1 1.6018508831637823e-01 7.6145736415444176e+01 5.7808145715638560e+01 9.6159398086636727e+01 0 0 0
433 3 -2.0772911557717677e-01 7.2603508006225766e+01 5.9482726414682652e+01 9.3722717269794799e+01 0 0 0
434 1 1.2177453947871224e-01 7.3515869870081062e+01 5.9465875421063551e+01 9.5722075291970469e+01 0 0 0
432 3 3.0624155084892996e-02 7.2642997512099484e+01 5.8995352361745482e+01 9.5239263686011682e+01 0 0 0
422 1 1.2667545160421556e-01 6.8960040537395813e+01 5.6483954358948544e+01 9.5609234283879005e+01 0 0 0
621 2 -5.8464398853195865e-01 7.0066497333125952e+01 5.7675232128481127e+01 8.9858389074912836e+01 0 0 0
424 3 -2.4762731632238177e-01 7.1387260934750060e+01 5.5697657000803382e+01 9.6105072379087176e+01 0 0 0
429 1 1.6717886863827788e-01 7.1150396801628006e+01 5.5638498797620073e+01 9.4999345943364759e+01 0 0 0
428 1 1.3742663684188022e-01 7.2261626587398126e+01 5.5031141305169690e+01 9.6301721673817610e+01 0 0 0
421 3 -1.7778500803097350e-01 7.0199688550901683e+01 5.5201603234181974e+01 9.6905377856486552e+01 0 0 0
3418 2 -6.7776870645558407e-01 6.9060955455331097e+01 5.3728128516549006e+01 9.9225196351423023e+01 0 1 0
426 1 1.7193270750338566e-01 7.0205680594732527e+01 5.5657000814504848e+01 9.7904353096069087e+01 0 0 0
801 1 1.6213575415449463e-01 7.4799091929016456e+01 5.7753193506209385e+01 9.7443832287265082e+01 0 0 0
420 3 2.2955292410484586e-02 6.8826923386074412e+01 5.5476682045377615e+01 9.6010704703220270e+01 0 0 0
629 2 -5.8292208293765335e-01 7.1132589468713789e+01 5.9813695487172616e+01 8.9480223409215583e+01 0 0 0
423 1 1.1225724610719462e-01 6.7945029098155729e+01 5.5760117209375068e+01 9.6736081172129516e+01 0 0 0
3422 1 2.9512860995624524e-01 6.8187177452231438e+01 5.4209085410011610e+01 9.9254320671885395e+01 0 1 0
439 3 -6.9694626976131158e-03 7.5143549994935299e+01 5.9667260671681696e+01 9.3858475095260602e+01 0 0 0
84 2 -5.1735199103348817e-01 7.2886329652537881e+01 5.3587137739687527e+01 8.9353881212404147e+01 0 0 0
435 1 1.9253437991937897e-01 7.1973749364204195e+01 5.9674033900036719e+01 9.5875137511400624e+01 0 0 0
616 1 1.6281142096674645e-01 6.8961788597024679e+01 5.5828639350024972e+01 9.0362738491234921e+01 0 0 0
3413 1 1.8888409079518814e-01 7.0934390992785922e+01 5.2952394806804065e+01 9.8694638734434974e+01 0 1 0
784 1 1.5692526020574063e-01 7.3417487942924595e+01 5.8087581981352720e+01 9.9000532892953984e+01 0 0 0
425 1 1.7549135679603792e-01 7.0241786837103589e+01 5.4082916653153127e+01 9.7100386905499093e+01 0 0 0
444 1 1.6877179006485526e-01 7.5595462841891162e+01 5.9049566906756958e+01 9.3008712333586288e+01 0 0 0
613 3 5.3423708658356772e-02 6.8248599497597453e+01 5.5591144604110966e+01 8.9467585888382985e+01 0 0 0
802 2 -5.9309650124948243e-01 7.5870792547685440e+01 5.9181911101685756e+01 9.8673888189516049e+01 0 0 0
638 1 1.6812232816862288e-01 7.3734794673229047e+01 5.5756104022885211e+01 8.9028709727454711e+01 0 0 0
82 1 1.8062105193252750e-01 7.0692216765684194e+01 5.3328997094147226e+01 8.9501574833736584e+01 0 0 0
419 2 -4.3352754286579731e-01 6.8604553098203425e+01 5.4466253172593355e+01 9.5147229163687157e+01 0 0 0
5004 2 -5.4746284355454189e-01 7.7138603357403355e+01 5.3365614749413027e+01 8.9873262871837085e+01 0 0 0
418 1 1.4327265551539592e-01 6.8059458956128935e+01 5.5952768346032684e+01 9.3680418418718688e+01 0 0 0
438 1 2.1428397521941964e-01 7.1684492140085823e+01 6.0075407196124459e+01 9.3593667675455336e+01 0 0 0
617 3 9.4981300063028407e-02 6.9093149046285674e+01 5.8007959661186959e+01 8.8752486386335292e+01 0 0 0
8343 1 1.6279227813428362e-01 7.5731701234476716e+01 5.3128970941352819e+01 9.5787403591059714e+01 0 1 0
87 3 8.4434532532252429e-02 7.3651332133078455e+01 5.2758842123979541e+01 8.8453188080407884e+01 0 0 0
615 1 1.7889819423520961e-01 6.8917173807869489e+01 5.4906529841588487e+01 8.8897545070775465e+01 0 0 0
804 3 4.7392284901059414e-02 7.6348114916029346e+01 6.0053885766977317e+01 9.9754750285966537e+01 0 0 0
624 1 1.8310996866383170e-01 6.8623950766547864e+01 5.9824558328700412e+01 8.9968355996403034e+01 0 0 0
620 3 2.2635947243271892e-03 6.8237288209754894e+01 5.9276231523732086e+01 8.9033033412747201e+01 0 0 0
3419 1 1.6969232430500239e-01 6.7964197434457716e+01 5.2770271909927807e+01 9.7600735598181089e+01 0 1 0
790 1 1.2124806375389489e-01 7.1214319760859794e+01 5.5354980752645545e+01 9.9839995911899479e+01 0 0 0
440 2 -5.7424844466180380e-01 7.4004005100931977e+01 6.0144819213238470e+01 9.1746984909271092e+01 0 0 0
80 3 4.9106124348684208e-03 7.1681729116112109e+01 5.2838780090029971e+01 8.9766283967153669e+01 0 0 0
1900 1 1.4041444712924173e-01 7.4585614918520562e+01 6.1617248679776132e+01 9.8300845953500342e+01 0 0 0
1597 2 -6.0494307222680277e-01 7.3297877535405021e+01 6.7413288114446516e+01 9.1025171167394163e+01 0 0 0
1612 1 1.3230813003961733e-01 7.7149782622157574e+01 6.5488696464351108e+01 9.1893984720327339e+01 0 0 0
1897 1 1.6324998749539799e-01 7.2349262412861989e+01 6.3718318205163769e+01 9.8341407688926679e+01 0 0 0
89 1 1.4327193283406434e-01 7.4770613426052748e+01 5.2792792231034490e+01 8.8568283798859511e+01 0 0 0
810 1 1.3572215533843085e-01 7.6899718133045226e+01 6.1940801968990350e+01 9.8720916207571989e+01 0 0 0
5319 1 1.4043227510570722e-01 6.8050800494386436e+01 6.0337244292787048e+01 9.9299874562163524e+01 1 0 0
83 1 1.1214463910830744e-01 7.1382133679640802e+01 5.2751554589370542e+01 9.0848327184043157e+01 0 0 0
5328 1 1.7598093556342057e-01 6.8631698347186827e+01 6.4016355318072883e+01 9.9091214512073066e+01 1 0 0
379 3 -1.8751492159389338e-01 6.8443854210333740e+01 6.1889987129322435e+01 9.6153972381159846e+01 0 0 0
593 1 1.4956581795799426e-01 6.9747800292928531e+01 6.4128427346666868e+01 8.9053603381847523e+01 0 0 0
395 3 2.9915710396082450e-02 6.8757592098931795e+01 6.2847626220429227e+01 9.2621382184528713e+01 0 0 0
861 1 1.8725341403093429e-01 7.5722424401037856e+01 6.6702334124005063e+01 9.8067564674228478e+01 0 0 0
446 1 3.1325339031334598e-01 7.6546842052515061e+01 6.0107504291130823e+01 9.5129376911311283e+01 0 0 0
1542 1 1.6832766614282324e-01 6.8261092533498555e+01 6.6257159595032178e+01 9.4274373983443979e+01 0 0 0