LAMMPS data file via write_data, version 23 Jun 2022, timestep = 1000000

8160 atoms
5 atom types

14.582874859362505 154.81712514058688 xlo xhi
63.91048240374145 86.08951759623058 ylo yhi
84.48445267469435 115.51554732532037 zlo zhi

Masses

1 15.999
2 12.011
3 14.007
4 1.008
5 32.06

Atoms # charge/kk

3262 4 1.2366548593849513e-01 1.5340734774234189e+01 6.8558705834038520e+01 9.0647930169385546e+01 0 0 0
3258 2 -2.0768968601422635e-01 1.5319081694164375e+01 6.8617158072779816e+01 8.9580739966639129e+01 0 0 0
3263 4 1.2583759604052791e-01 1.5198801804688033e+01 6.9725899236772634e+01 8.9422506078102700e+01 0 0 0
3106 5 -8.3529861442284567e-02 2.1759045534195295e+01 6.9413385032363820e+01 8.6421437661485669e+01 0 0 0
3103 5 -1.2323847712264398e-01 2.0018790412821055e+01 7.1195875685926708e+01 8.5371621489347632e+01 0 0 0
3261 2 -2.0507274914344573e-01 1.6727411707920599e+01 6.8065765227926050e+01 8.8927738881034230e+01 0 0 0
3265 4 1.0248266114125260e-01 1.6819965496257169e+01 6.6928691806039566e+01 8.9050757957280098e+01 0 0 0
3100 2 -1.8538246151023877e-01 1.8436683882531966e+01 7.1040661993203102e+01 8.6746561760484582e+01 0 0 0
3105 4 1.1248919114457975e-01 1.8066973470736780e+01 7.0023654715489570e+01 8.7029654163175778e+01 0 0 0
3266 4 9.2430635492851396e-02 1.6764901627120707e+01 6.8046742082802467e+01 8.7825644501132558e+01 0 0 0
3269 4 1.0373670906029817e-01 1.7888902891782429e+01 6.9973187089022659e+01 8.9536353261348026e+01 0 0 0
3264 2 -1.9945899933080466e-01 1.7955883114125903e+01 6.8833211046317558e+01 8.9670290089137168e+01 0 0 0
3268 4 1.3695038378499666e-01 1.7829914264903355e+01 6.8779328942427767e+01 9.0756107087227448e+01 0 0 0
3267 2 -1.7758183729401797e-01 1.9358204630834400e+01 6.8370199034092579e+01 8.9252554304831008e+01 0 0 0
3272 4 1.3357124270220075e-01 1.9449878095764422e+01 6.8611524096214382e+01 8.8151767392597563e+01 0 0 0
3104 4 1.1203252209023935e-01 1.8755112119245787e+01 7.1413478991051761e+01 8.7787803856253518e+01 0 0 0
3271 4 1.2479641713459282e-01 1.9522187228300119e+01 6.7250632975844582e+01 8.9296743449122104e+01 0 0 0
3270 2 -1.7674154251887872e-01 2.0498394025864201e+01 6.9033982325894684e+01 8.9975069487837587e+01 0 0 0
3275 4 1.1725246137678652e-01 2.0531360161172007e+01 6.8784742747156784e+01 9.1060021467783059e+01 0 0 0
3274 4 1.2632359841094587e-01 2.0282164194792628e+01 7.0163941418626678e+01 9.0144562773424369e+01 0 0 0
3097 2 -1.8286080861398102e-01 1.7279573058631250e+01 7.1796937271148209e+01 8.6191636897148939e+01 0 0 0
3587 2 -1.5864926489501557e-01 1.7578010113440552e+01 7.4377699607515879e+01 9.0037848490355898e+01 0 0 0
3102 4 1.1483857695571223e-01 1.7203697107004118e+01 7.2842756648324638e+01 8.6649039513132081e+01 0 0 0
3592 4 1.3836041403980195e-01 1.7461597956431788e+01 7.3249073348631597e+01 9.0219148600153829e+01 0 0 0
3099 4 1.1021049339458688e-01 1.5987869039864746e+01 7.0284440638380147e+01 8.7194972543333890e+01 0 0 0
3094 2 -1.9036987948058653e-01 1.5948389356252974e+01 7.1025925965620175e+01 8.6312810638611595e+01 0 0 0
3098 4 1.1662185202722948e-01 1.5807700163825492e+01 7.0324894712429597e+01 8.5449209401512292e+01 0 0 0
3273 5 -9.7824267808565235e-02 2.2408323171244362e+01 6.8702259681320768e+01 8.9066649166693978e+01 0 0 0
1574 4 1.1577873683199295e-01 1.9970301860964231e+01 6.5825789211239609e+01 8.6751016249216846e+01 0 0 0
3585 2 -2.4238231033497812e-01 1.6540665573330475e+01 7.4911642012211487e+01 8.8896943290753313e+01 0 0 0
1575 4 1.2659212426451455e-01 1.9972722116884295e+01 6.5137906791589998e+01 8.5234296433266124e+01 0 0 0
1570 2 -1.6862090061230706e-01 1.9976297175961857e+01 6.6174979086722090e+01 8.5658316693787441e+01 0 0 0
3588 4 1.3739825593923319e-01 1.6782103311463022e+01 7.4487337948740716e+01 8.7886576091663400e+01 0 0 0
1566 4 1.0102989066020483e-01 1.5905618318518309e+01 6.7039249925989452e+01 8.6156461930395309e+01 0 0 0
1572 4 1.0840067795724312e-01 1.8363496741417116e+01 6.7355655586003323e+01 8.6303136191315431e+01 0 0 0
1567 2 -1.7884651809836480e-01 1.8647524886229132e+01 6.6791821659886665e+01 8.5331353201807204e+01 0 0 0
271 4 1.1883918056602388e-01 2.2253448050276756e+01 7.3111395589366495e+01 8.6605981593681435e+01 0 -1 0
1561 2 -1.9719066623123943e-01 1.6006872248577835e+01 6.6601306081522836e+01 8.5126883473730089e+01 0 0 0
3444 4 1.2088330890905659e-01 1.6483392044688440e+01 7.1318409282677507e+01 9.1376969889434505e+01 0 0 0
266 2 2.6874597514359461e-02 2.2365232217976711e+01 7.4249282895740564e+01 8.6511583070581025e+01 0 -1 0
265 4 1.1825989769558994e-01 1.9906443645997335e+01 7.3947818042669539e+01 8.5492509290953933e+01 0 -1 0
1564 2 -2.0180628225903804e-01 1.7437549254342553e+01 6.5905978413801634e+01 8.5024506879557151e+01 0 0 0
1569 4 1.0467277104747819e-01 1.7458512967842033e+01 6.4875846603636091e+01 8.5430715249309230e+01 0 0 0
3446 5 -1.1883550104325567e-01 1.9923129481529397e+01 7.2780037039021323e+01 9.1633708544960029e+01 0 0 0
270 4 1.1366117007580384e-01 2.2303182519930917e+01 7.4145477768664634e+01 8.5410271136161143e+01 0 -1 0
3448 2 -1.5402621700008992e-01 2.2758217835830443e+01 7.3432289844534097e+01 9.2003188226299827e+01 0 0 0
3452 4 1.6515033567751267e-01 2.2544282822469409e+01 7.4568732932001240e+01 9.2066076357891845e+01 0 0 0
3584 2 5.0746424956109515e-01 1.5138878337899978e+01 7.4544141541930500e+01 8.9310411658411923e+01 0 0 0
3101 4 1.4186539041822460e-01 1.7469881712805968e+01 7.2052732443367816e+01 8.5135467709023217e+01 0 0 0
1573 5 -8.2315187922753955e-02 2.1591025642681835e+01 6.7207892998298860e+01 8.4771623254802336e+01 0 0 0
1737 2 -1.9059024874112890e-01 1.5005148463197683e+01 6.6012701616460518e+01 9.2266716825750692e+01 0 0 0
3998 3 -4.3898253682896637e-01 3.2046152012525859e+01 7.4601546252340839e+01 9.8939383350597012e+01 0 0 0
3095 4 1.2675722632278069e-01 1.4638644024257459e+01 7.2749206995885714e+01 8.5546743963022081e+01 0 0 0
260 4 1.8805867835998333e-01 1.7500054421898515e+01 7.4972204316795498e+01 8.4751152021781962e+01 0 -1 0
3445 4 1.6176437035783878e-01 1.6060287263932789e+01 7.3012591444825603e+01 9.1651487631308029e+01 0 0 0
1741 4 1.1873667574045556e-01 1.5016349969283528e+01 6.6252428252591628e+01 9.1209793470680765e+01 0 0 0
1563 4 1.0550097534042172e-01 1.5178654486015272e+01 6.4520099956342577e+01 8.5180337954038691e+01 0 0 0
1558 2 -1.9131827842784166e-01 1.4847792250885577e+01 6.5548737370264689e+01 8.4842173578383637e+01 0 0 0
3453 4 1.6872436501216281e-01 2.2641699977200542e+01 7.3197980445542456e+01 9.0913412398939101e+01 0 0 0
2072 4 1.2590058205517579e-01 2.1057651942495760e+01 6.3986904406631716e+01 9.4114928395841360e+01 0 0 0
3096 4 1.7643688749976266e-01 1.4793967064251808e+01 7.2710807375929008e+01 8.7326180768191321e+01 0 0 0
3091 2 -1.9312244990542171e-01 1.4674664146088222e+01 7.2016409949668670e+01 8.6452504397209154e+01 0 0 0
3591 4 1.4207986303044659e-01 1.8660178222884738e+01 7.4372631808321927e+01 8.9732737995287764e+01 0 0 0
3995 4 1.5486850201174765e-01 2.9970845597920604e+01 7.3283887340405229e+01 9.8290625066406932e+01 0 0 0
268 4 1.4215207397885873e-01 2.0754712068754230e+01 7.4514665090703048e+01 8.7963027259627708e+01 0 -1 0
2268 1 -5.5124975412014854e-01 3.2050968419640746e+01 6.9110556484953577e+01 9.5200360355366954e+01 0 0 0
1742 4 1.1907892666198720e-01 1.4834679769484728e+01 6.6978760937742223e+01 9.2827825165396177e+01 0 0 0
3586 1 -6.2694877909103808e-01 1.4950263724822847e+01 7.3324620383617173e+01 8.9614704273694699e+01 0 0 0
1576 5 -9.7482598166312273e-02 2.3380490596722865e+01 6.5923168983623214e+01 8.5719656522212105e+01 0 0 0
4443 5 -1.1483144113626519e-01 3.0264947829346390e+01 7.4539679599163065e+01 8.7718401239067447e+01 0 -1 0
3107 2 -1.8631972069415986e-01 2.3596379435638219e+01 7.0119086882561518e+01 8.5754762040530750e+01 0 0 0
3110 4 1.7540813111209413e-01 2.3712567659794232e+01 7.1237258226093616e+01 8.5824413371385688e+01 0 0 0
3276 5 -1.2509964456266767e-01 2.3599042066195310e+01 7.0175305759649859e+01 9.0460038603854443e+01 0 0 0
3113 4 1.6459441100433850e-01 2.4724781684010697e+01 6.9531708824260249e+01 8.7601321128451374e+01 0 0 0
3108 2 -1.5263427815054856e-01 2.4829806225954929e+01 6.9445533633313886e+01 8.6464715072272199e+01 0 0 0
3115 4 1.4668904813095443e-01 2.6441257492663464e+01 7.0168498449753116e+01 8.4991025492819205e+01 0 0 0
3114 2 4.8631133304756308e-01 2.7456463808873927e+01 6.9321049350932483e+01 8.6719138607570656e+01 0 0 0
3118 1 -5.7285197852666669e-01 2.7134673135428912e+01 6.8444618648196808e+01 8.7582582125566006e+01 0 0 0
3280 4 1.7392651185062896e-01 2.5517601320272451e+01 6.8687850141702953e+01 8.9107993106797736e+01 0 0 0
3281 2 -2.4601981804470552e-01 2.7921612579542614e+01 7.0166011711064328e+01 9.0897558808567084e+01 0 0 0
3278 2 -1.5292331413598395e-01 2.6521122370489941e+01 7.0462759114695700e+01 9.0158985633089983e+01 0 0 0
3121 4 1.4331070324678818e-01 2.9654336210682025e+01 6.8628450671335159e+01 8.7764254438759991e+01 0 0 0
3119 2 2.7905949801615339e-02 2.9892900800955942e+01 6.9477642008342954e+01 8.7034975459690628e+01 0 0 0
3116 4 1.8259270650243725e-01 2.6437563230298696e+01 7.1155298797115449e+01 8.6530928251276507e+01 0 0 0
3284 2 4.9217130412212873e-01 2.8969668433057947e+01 7.1216155863919866e+01 9.0673819112509250e+01 0 0 0
3111 2 -2.5044443631971686e-01 2.6274790159777503e+01 7.0085689425419389e+01 8.6125001543594891e+01 0 0 0
3279 4 1.3723595448563206e-01 2.5674993503028841e+01 6.8644986477293571e+01 9.0890429597050229e+01 0 0 0
3277 2 -1.9567006770217266e-01 2.5402957353553930e+01 6.9297512434205686e+01 9.0061738512166073e+01 0 0 0
3117 1 -5.2467947221587530e-01 2.8711748034037278e+01 6.9809233367475315e+01 8.6267155175221987e+01 0 0 0
3120 2 -1.6950111319016142e-01 3.1152312952185497e+01 6.9025729711719720e+01 8.6196886245377641e+01 0 0 0
3122 4 1.3227639462780358e-01 3.0243646290888115e+01 7.0303775022686111e+01 8.7701257445185874e+01 0 0 0
3125 4 1.9875485990393210e-01 3.0923895610040134e+01 6.9161391732798577e+01 8.5108288519793959e+01 0 0 0
3287 1 -5.8895106717979573e-01 3.0244905587941162e+01 7.0737193038528019e+01 9.1056700537093903e+01 0 0 0
3286 4 1.5829155193833228e-01 2.8321018563627671e+01 6.9132026539967484e+01 9.0497680625497509e+01 0 0 0
3289 2 3.1843707121506436e-02 3.1313930059928516e+01 7.1530378167217265e+01 9.0542684064289190e+01 0 0 0
3112 4 1.5936014600125459e-01 2.4804120613590939e+01 6.8337459220096775e+01 8.6195802245192070e+01 0 0 0
3124 4 1.6212170607891688e-01 3.1304054948636946e+01 6.7935083562719257e+01 8.6351223463761102e+01 0 0 0
279 4 1.9477296182548109e-01 2.7714744715670513e+01 7.3828080702186526e+01 8.8649003875605231e+01 0 -1 0
3283 4 1.8013186897323658e-01 2.6803297984921549e+01 7.0881252316202705e+01 8.9120164176585632e+01 0 0 0
1578 2 -1.6796236334220027e-01 2.6194610675651699e+01 6.6595848070771225e+01 8.4872597366989368e+01 0 0 0
1582 4 1.6617162767639615e-01 2.6238897158641326e+01 6.6294684563026223e+01 8.5976429883968024e+01 0 0 0
3292 4 1.1499165297923933e-01 3.1168219485596886e+01 7.1991783217125288e+01 8.9519149047525431e+01 0 0 0
3282 4 1.7575756684134106e-01 2.6074232877061242e+01 7.1354172692073021e+01 9.0644499851840521e+01 0 0 0
3288 1 -5.6654536292105484e-01 2.8642242490414027e+01 7.2212496861677351e+01 8.9939942546015772e+01 0 0 0
3285 4 1.5148592289490070e-01 2.7715763678359362e+01 7.0115300087204446e+01 9.2046194815753594e+01 0 0 0
3462 4 1.3829763196993433e-01 2.7778940150234160e+01 7.4865140273220817e+01 9.0732949159024102e+01 0 0 0
274 1 -5.6788532071550457e-01 2.5165786871636197e+01 7.3225104606976814e+01 8.6219881579031053e+01 0 -1 0
272 2 5.0256297535040673e-01 2.4818403351196014e+01 7.4226264016069294e+01 8.6884628317512636e+01 0 -1 0
3291 4 1.1603490357076389e-01 3.1408775466113163e+01 7.2593176996401297e+01 9.0958723551419837e+01 0 0 0
275 2 -1.5550135647985799e-01 2.7380184023402180e+01 7.4250094014648511e+01 8.7657863968873983e+01 0 -1 0
280 4 1.8619331095868785e-01 2.7314914889365802e+01 7.3357068997986602e+01 8.6984309284043434e+01 0 -1 0
1583 4 1.7655245903509201e-01 2.6419728211206213e+01 6.7683411371731466e+01 8.4772265753770753e+01 0 0 0
3454 2 4.9444623023172063e-01 2.5318584814658241e+01 7.4004760488473721e+01 9.1747304244386996e+01 0 0 0
3459 2 3.9736322611006208e-02 2.7578060117032955e+01 7.4766947439974189e+01 9.1864585568551703e+01 0 0 0
1594 4 1.7490489076716914e-01 3.2064389636845192e+01 6.4594438774512710e+01 8.5476890467857118e+01 0 0 0
3458 1 -5.3668768305429315e-01 2.5067828466645068e+01 7.4729946440354880e+01 9.0728619692924937e+01 0 0 0
2096 4 1.5977213983376201e-01 2.8577806707674046e+01 6.4683351866114862e+01 9.1667597801661813e+01 0 0 0
269 1 -5.3548649784794067e-01 2.3544921425740498e+01 7.4840935218313732e+01 8.7116667796743656e+01 0 -1 0
3600 4 1.1801812068310684e-01 1.7669736040748283e+01 7.4170985616660147e+01 9.7372637423707033e+01 0 0 0
1591 4 1.3184847789357457e-01 3.1556374458259974e+01 6.6895148369969334e+01 8.4554154092916477e+01 0 0 0
3109 4 1.5385129732358377e-01 2.3758684482629704e+01 6.9912107797537232e+01 8.4673889664546707e+01 0 0 0
3440 2 -1.8468116322278175e-01 1.6354662873462946e+01 7.2073361395379209e+01 9.2227012385474410e+01 0 0 0
2082 4 1.1591481845459926e-01 2.2683345785665210e+01 6.8104639074129452e+01 9.2299410485202884e+01 0 0 0
1740 2 -1.9550035709997340e-01 1.6348379811404794e+01 6.5439709943060450e+01 9.2691731471380578e+01 0 0 0
2235 4 1.4302010615438221e-01 1.4623945564719037e+01 6.6435959187965125e+01 9.8625752939167398e+01 0 0 0
1744 4 1.1507365761074238e-01 1.6285479280576673e+01 6.5023697652173496e+01 9.3726348158937753e+01 0 0 0
2256 5 -9.3775352612130311e-02 2.6957716264574319e+01 7.0315787221626351e+01 9.5348351611351220e+01 0 0 0
3795 4 1.1167863922775247e-01 2.2638205804335549e+01 7.1723154315886219e+01 9.9641923459011437e+01 0 0 0
723 5 -7.9705344372660678e-02 1.9465156226960392e+01 6.4105665499685088e+01 9.9948504555065043e+01 0 0 0
3599 4 1.2642907692466371e-01 1.6993326368319646e+01 7.4095905772507521e+01 9.5676830638559835e+01 0 0 0
3597 2 -1.9336640393881521e-01 1.7154611332183627e+01 7.4789221959732572e+01 9.6548212013665918e+01 0 0 0
3797 1 -5.7695977369328477e-01 2.5212194752154211e+01 7.1957338171756845e+01 9.9575368716540055e+01 0 0 0
2076 4 1.1457574781343181e-01 2.1625985765486963e+01 6.5842344630300062e+01 9.2635433210029689e+01 0 0 0
3726 4 1.5549477066079664e-01 1.4744451152093180e+01 7.0942495774956427e+01 9.9337954733863086e+01 0 0 0
1743 5 -1.7413185746118190e-01 1.7552434063200224e+01 6.6955311599978302e+01 9.2502615434194524e+01 0 0 0
3441 4 1.2303736351041308e-01 1.5127790173258953e+01 7.2439655958080763e+01 9.3944503857369156e+01 0 0 0
2059 4 1.2361218480472649e-01 1.4704255723470160e+01 6.7916007545475168e+01 9.4358620876938460e+01 0 0 0
3437 2 -1.8156965254926397e-01 1.5225092196266361e+01 7.1687310806489236e+01 9.3093472499133640e+01 0 0 0
3722 2 -1.6448693081701404e-01 1.5045223257167004e+01 7.2068155777500579e+01 9.9456430849451081e+01 0 0 0
727 2 -1.7104146977781512e-01 2.2936972031600060e+01 6.4427730607369156e+01 9.8685180104947307e+01 0 0 0
3727 4 1.3713020835349435e-01 1.5826755072447796e+01 7.2298752527764961e+01 9.8700115353359635e+01 0 0 0
2070 4 1.1257297925177899e-01 1.9014321442061078e+01 6.5223872557905025e+01 9.4709393353517143e+01 0 0 0
3447 2 -2.0492178347323459e-01 2.1658082294607656e+01 7.2754656682733099e+01 9.2932232198442307e+01 0 0 0
3450 4 1.1713870375774148e-01 2.2147551211436216e+01 7.1780947868109962e+01 9.3158448369116314e+01 0 0 0
2061 4 1.6533847794896050e-01 1.5578537130608055e+01 6.8128248465988406e+01 9.7366421712943037e+01 0 0 0
3443 5 -1.2506684122518627e-01 1.8121225468083495e+01 7.2188032498278133e+01 9.3422591799198173e+01 0 0 0
2062 4 1.3732125313434201e-01 1.6077365609406819e+01 6.9390478746782151e+01 9.6235428935533832e+01 0 0 0
2057 2 -1.6861902811407034e-01 1.5849738287141832e+01 6.8275755839421691e+01 9.6315718214353836e+01 0 0 0
3449 4 1.2709064264491696e-01 2.1417387904908445e+01 7.3157602007670164e+01 9.3900912399022971e+01 0 0 0
2079 4 1.1609823295454785e-01 2.1688502508495834e+01 6.7767442136798650e+01 9.4525311092322553e+01 0 0 0
2071 2 -1.9403349641989590e-01 2.2150205059423850e+01 6.5718295215833948e+01 9.3615473589985868e+01 0 0 0
2074 2 -1.8600965634006075e-01 2.2548686052740212e+01 6.7102773938602922e+01 9.4312125064951815e+01 0 0 0
2068 2 -1.8107759846588337e-01 2.1255240626100555e+01 6.4961292665017112e+01 9.4582399400288281e+01 0 0 0
2060 2 -1.9045848945112301e-01 1.7170942385985413e+01 6.7494180478719684e+01 9.5977831727522471e+01 0 0 0
2065 4 1.1318027030203512e-01 1.7955452900221850e+01 6.8281836821720631e+01 9.5718306326092375e+01 0 0 0
2063 5 -9.7882997516188591e-02 1.7787234118157453e+01 6.6205495030629791e+01 9.7473852239162085e+01 0 0 0
2066 5 -1.2799284479024983e-01 2.0381951128704408e+01 6.6219485270326857e+01 9.6847802611505287e+01 0 0 0
2249 4 1.2595885257542250e-01 2.2010317542636532e+01 6.7921203671845277e+01 9.7846204648875585e+01 0 0 0
2064 4 1.3647095812013096e-01 1.7044448269644082e+01 6.7109840301844841e+01 9.4955693950781082e+01 0 0 0
2067 2 -1.7411388101946992e-01 2.0012971634600785e+01 6.5740369883243531e+01 9.4910162565159055e+01 0 0 0
2069 4 1.1816832557552744e-01 1.9873254151332844e+01 6.6640739623785890e+01 9.4222229610284458e+01 0 0 0
2244 2 -2.0065691534689820e-01 2.2351928993970333e+01 6.8543610837553842e+01 9.8709543144824096e+01 0 0 0
2073 4 1.4128216389327608e-01 2.1835420412221183e+01 6.4705312727119320e+01 9.5538464133131839e+01 0 0 0
2243 4 1.6864096640289908e-01 2.0145873160537857e+01 6.7081595821596210e+01 9.9251825900702869e+01 0 0 0
2248 4 9.4391792689972068e-02 2.1858395655512055e+01 6.9599890851841096e+01 9.8556525980306333e+01 0 0 0
2233 5 -1.0652039922508796e-01 1.6944091392019267e+01 6.7516982855446358e+01 9.9501480323646589e+01 0 0 0
3442 4 1.2581581020948637e-01 1.5375616861351910e+01 7.0666980346294935e+01 9.3630375630077921e+01 0 0 0
730 4 1.4054080796192059e-01 2.2865492533393834e+01 6.4993757474963090e+01 9.9688047067442312e+01 0 0 0
3463 2 -2.6350388632985439e-01 3.0236055969240176e+01 7.4891377327706621e+01 9.1779002617567301e+01 0 0 0
3466 2 3.7131376818109457e-01 3.1532819166154447e+01 7.4718707407523723e+01 9.2585052612986914e+01 0 0 0
2230 2 -1.8826885743800612e-01 1.5006035767173133e+01 6.6643295051820360e+01 9.9666707976557717e+01 0 0 0
2075 4 1.1617961766640586e-01 2.3081632640043793e+01 6.5091077389048976e+01 9.3408024093428139e+01 0 0 0
2077 2 -1.8996599949931903e-01 2.3371532795108049e+01 6.7847227973005843e+01 9.3197833996962771e+01 0 0 0
3593 5 -1.0919930613802498e-01 1.8906603553283794e+01 7.4649457489955964e+01 9.2804012529487451e+01 0 0 0
2078 4 1.3348361287288849e-01 2.3189722224639457e+01 6.6918748618805424e+01 9.5254807867521052e+01 0 0 0
1745 4 1.0486452886114142e-01 1.6579443349949305e+01 6.4532978575088109e+01 9.2042874699782146e+01 0 0 0
726 5 -1.1622914332548971e-01 2.1066194854956873e+01 6.3971267085184259e+01 9.7787888536442679e+01 0 0 0
729 4 1.6748734370342039e-01 2.3576583112371463e+01 6.5152388310498722e+01 9.8158652840937364e+01 0 0 0
3799 2 4.7955079323687325e-02 2.6643968438274307e+01 7.1669787374529704e+01 9.9744873275129237e+01 0 0 0
2081 4 1.3049639962633322e-01 2.4199092666234897e+01 6.7178067634286862e+01 9.2753032224885089e+01 0 0 0
2083 5 -1.2085887390812214e-01 2.6097882517565239e+01 6.8513837841066078e+01 9.3680669044904363e+01 0 0 0
2091 2 -2.5089582890447998e-01 2.8264295433000807e+01 6.4509709966874723e+01 9.2719095813312009e+01 0 0 0
3812 4 1.8832992544972219e-01 3.0199185949935273e+01 6.8160015987155219e+01 9.9674095921616725e+01 0 0 0
2254 4 1.1034574050521283e-01 2.3604832144294210e+01 6.8684092007545047e+01 9.6611979775083668e+01 0 0 0
2262 4 1.5204361200682431e-01 3.0020866858129445e+01 7.1785476930677632e+01 9.6043129635452289e+01 0 0 0
3817 4 1.9598399542208236e-01 3.1606547238245298e+01 7.1162268212686030e+01 9.9045506867222812e+01 0 0 0
2255 4 1.3152385954343054e-01 2.4160006315859562e+01 7.0145353189933175e+01 9.7276727711963645e+01 0 0 0
3813 4 1.5720490465712708e-01 3.1448347292851828e+01 6.8444762873174795e+01 9.8026044234593357e+01 0 0 0
2265 4 1.8328814604068799e-01 3.0990275639477332e+01 7.0813198489908601e+01 9.3187652445077219e+01 0 0 0
3809 3 -4.6662704735411248e-01 3.0575371204740787e+01 6.9136767487574616e+01 9.9788874519824972e+01 0 0 0
2095 4 1.5358452636101075e-01 2.7257151802427625e+01 6.4057877864874726e+01 9.2552391017001710e+01 0 0 0
3806 2 3.4588713074387978e-01 2.9505431186140846e+01 6.9993308620680494e+01 9.9295162074327919e+01 0 0 0
3811 2 -4.3220343785820648e-03 3.1815880684896904e+01 6.9039202262368249e+01 9.8904912162615162e+01 0 0 0
3808 4 1.8620058962511177e-01 2.7731775108848108e+01 7.0034296500589960e+01 9.7975703031740963e+01 0 0 0
2088 2 -1.8481368047195967e-01 2.8232373034648688e+01 6.5898959673359400e+01 9.3482526465371052e+01 0 0 0
2258 2 -1.5679412546898244e-01 2.9894295708538550e+01 7.1249487665853593e+01 9.5046802939933031e+01 0 0 0
2090 4 2.0501614835797347e-01 2.8014345718499978e+01 6.4637743413251954e+01 9.5291733587181952e+01 0 0 0
2257 2 -1.7447114263726834e-01 2.9080018727937137e+01 6.9905675595356783e+01 9.5141640604020239e+01 0 0 0
3451 2 -2.5317165734650510e-01 2.4273047098939465e+01 7.3167930118715844e+01 9.2481530870119542e+01 0 0 0
2260 4 1.5179130985385375e-01 2.9415995655405204e+01 6.9264041775294800e+01 9.4275926965157225e+01 0 0 0
2080 2 -1.8206738508021289e-01 2.4146684276708999e+01 6.9042351357601717e+01 9.3712400768521221e+01 0 0 0
2252 4 1.5967009202091170e-01 2.4388490038317812e+01 6.7648685388352220e+01 9.9057670062613738e+01 0 0 0
2263 4 1.4099575751351118e-01 2.9233678042208190e+01 7.1983357080884659e+01 9.4484854565095006e+01 0 0 0
3456 4 1.4689895216408236e-01 2.4566913359704106e+01 7.2090744622038486e+01 9.2492763422830066e+01 0 0 0
2250 2 -1.7371579771297246e-01 2.4346890611245684e+01 6.9022044509906593e+01 9.7308959021588990e+01 0 0 0
2085 4 1.1690409605067631e-01 2.3847017244362995e+01 6.9332742561595239e+01 9.4776104940953786e+01 0 0 0
743 2 -2.4902191382922401e-01 3.1135548439686637e+01 6.4307344801520429e+01 9.8545883689396618e+01 0 0 0
738 1 -5.3863465568644076e-01 2.5832123991353662e+01 6.5228458079099624e+01 9.9119513014489584e+01 0 0 0
3802 4 1.6389659122569056e-01 2.7298344820062724e+01 7.2010147159287641e+01 9.8843905562324153e+01 0 0 0
2084 4 1.1825350781860695e-01 2.3892761612632370e+01 6.9971767597716621e+01 9.3102944828724915e+01 0 0 0
3470 1 -5.4257486324576709e-01 3.1278841615477219e+01 7.4424090900088743e+01 9.3800103771952166e+01 0 0 0
3455 4 1.6033226336152165e-01 2.4353167468864175e+01 7.3486999931829814e+01 9.3595981597797262e+01 0 0 0
3465 4 1.8408048160024498e-01 2.9028996988114208e+01 7.3353779244987265e+01 9.2758271797436322e+01 0 0 0
2259 4 1.6320688406736786e-01 2.9523300822732942e+01 6.9315271257205509e+01 9.5956200037359011e+01 0 0 0
2247 2 -1.8413829751163724e-01 2.3873426233809084e+01 6.8650807369128259e+01 9.8683062891181848e+01 0 0 0
2261 2 -2.5937732702805466e-01 3.1244424674827101e+01 7.1138158816925596e+01 9.4227832731910908e+01 0 0 0
3994 2 8.6079025876854964e-03 3.0699109099109741e+01 7.4988783348053090e+01 9.9420585044428606e+01 0 0 0
3464 4 1.6826560055160669e-01 2.8977644609159267e+01 7.4894778492502965e+01 9.3502311104508806e+01 0 0 0
3460 2 -1.8328388438604976e-01 2.8960390915897918e+01 7.4427719987080806e+01 9.2577218805393997e+01 0 0 0
742 4 1.0924281082967835e-01 2.8869498334381873e+01 6.5281099388328030e+01 9.8679000069044932e+01 0 0 0
2086 5 -9.1511316191075220e-02 2.5902935234143637e+01 6.6442454552669560e+01 9.5320764726702379e+01 0 0 0
747 4 1.3844860310849111e-01 3.1064511493724062e+01 6.5082228661951248e+01 9.7731511034114305e+01 0 0 0
3467 4 1.4320726190544694e-01 3.0259284516760673e+01 7.4283161469653734e+01 9.0818999882754611e+01 0 0 0
2093 4 1.3533674653027017e-01 2.7454027608047358e+01 6.6517457377780048e+01 9.2961509597554979e+01 0 0 0
3807 4 1.3583163567300852e-01 2.7792734871176194e+01 6.8517630297829939e+01 9.8851057252297551e+01 0 0 0
3810 1 -5.6388406074078112e-01 2.9615482334520070e+01 7.1052635234095106e+01 9.8611474753559406e+01 0 0 0
3803 2 -2.2355744473412448e-01 2.7963624622850716e+01 6.9657708010849461e+01 9.9041761900528229e+01 0 0 0
2253 5 -9.0762076448305085e-02 2.6375611974971719e+01 6.8441929290163813e+01 9.6944938117138548e+01 0 0 0
734 2 4.8003901541200672e-01 2.6225961433269681e+01 6.4153125147684136e+01 9.8515943068194744e+01 0 0 0
748 4 1.2477753833431934e-01 3.1095984237866219e+01 6.4795105460829490e+01 9.9561209702483964e+01 0 0 0
2266 4 1.8919679227707367e-01 3.1696710400972151e+01 7.2126526946406102e+01 9.3948009968845142e+01 0 0 0
3457 1 -5.2965451775653538e-01 2.6569242496987471e+01 7.3829722523084698e+01 9.2395494097059299e+01 0 0 0
2089 4 1.2932401621219200e-01 2.8679485206211858e+01 6.6155832592590130e+01 9.5594567164329746e+01 0 0 0
3996 4 9.6036261110531568e-02 2.8788177239220509e+01 7.4477530601721725e+01 9.8475207021619894e+01 0 0 0
739 2 3.9427299522973025e-02 2.8574096764274778e+01 6.4166448754985140e+01 9.8899077788886913e+01 0 0 0
3992 2 9.5863386029535619e-03 2.9592882506430335e+01 7.3936465810799106e+01 9.9096665006904090e+01 0 0 0
2092 4 1.3068441166543462e-01 2.9123656627591327e+01 6.6550034518410754e+01 9.3371831496364905e+01 0 0 0
2251 4 1.3774076047834768e-01 2.4240813132449983e+01 6.9438800026153388e+01 9.9397727451371125e+01 0 0 0
2087 2 -1.6439183089980366e-01 2.7829979728317852e+01 6.5679511839191491e+01 9.4988030093377319e+01 0 0 0
277 4 2.3207431678342214e-01 2.5451343686040826e+01 7.4996658990410523e+01 8.8712081414441784e+01 0 -1 0
273 2 -2.5316764558844790e-01 2.5902359931483854e+01 7.4934819299006080e+01 8.7709058119213694e+01 0 -1 0
2242 4 1.2694606280550835e-01 1.9754102629681970e+01 6.8722646251561400e+01 9.9957258727753640e+01 0 0 0
3800 2 -1.8400723840310304e-01 2.6961280180633459e+01 7.0164667387211580e+01 9.9948620743604963e+01 0 0 0
3805 4 1.5150185740174366e-01 2.5987399520881496e+01 6.9579073795911356e+01 9.9875739062737082e+01 0 0 0
1571 4 1.4856567875411195e-01 1.8779593265016153e+01 6.7657789315814370e+01 8.4599397995170463e+01 0 0 0
1585 4 1.6405266497597393e-01 2.7441934869225758e+01 6.4785763013163375e+01 8.4523903739381879e+01 0 0 0
3787 2 -1.8637507963880948e-01 2.0729195650040648e+01 7.2987600595503181e+01 1.0158956129112654e+02 0 0 0
3786 5 -8.6858152018522441e-02 1.8932161492386129e+01 7.2034783324440468e+01 1.0228764642699346e+02 0 0 0
3788 2 -1.7360436948247096e-01 2.1995576891780743e+01 7.2122131850616810e+01 1.0184728906557164e+02 0 0 0
3791 2 -2.6276696158992330e-01 2.3022884457716014e+01 7.2320247081859691e+01 1.0058953661352105e+02 0 0 0
2237 2 -1.6450234257406723e-01 1.9854580524510826e+01 6.7089462503381910e+01 1.0139423341286168e+02 0 0 0
3792 4 1.4473637461840319e-01 2.1776292337496116e+01 7.1037099829399693e+01 1.0198890758524297e+02 0 0 0
3793 4 1.6123326674279220e-01 2.2549925945984327e+01 7.2428073660590798e+01 1.0275823168624375e+02 0 0 0
2240 4 1.4672097879336768e-01 1.9711983272840282e+01 6.7940510193478104e+01 1.0212542750269678e+02 0 0 0
2239 4 1.6748661120282765e-01 2.0744727050414333e+01 6.6448807391253240e+01 1.0172386131692508e+02 0 0 0
3926 1 -5.4002175939585373e-01 2.2280488558635113e+01 6.7399863123104154e+01 1.0398030886604116e+02 0 0 0
3922 4 1.2572135628384115e-01 1.9812576851224499e+01 6.7368030931607606e+01 1.0461465543690049e+02 0 0 0
3924 2 4.5985362125866908e-01 2.2101971226412964e+01 6.8566034581920050e+01 1.0444616697591806e+02 0 0 0
3916 4 1.3312291039225790e-01 1.7434370596372485e+01 6.7247332791445515e+01 1.0409745876817196e+02 0 0 0
2245 4 1.3502235426891460e-01 2.2159679134866600e+01 6.8679651542440737e+01 1.0089827928441902e+02 0 0 0
3923 4 9.7569983184121065e-02 1.9468219420150586e+01 6.7966558441811912e+01 1.0608504496901388e+02 0 0 0
3918 2 3.8485856807793810e-02 1.9770939021892158e+01 6.8430170136376418e+01 1.0506951525042291e+02 0 0 0
3920 4 1.7739110310865266e-01 1.8510218488236003e+01 6.9459702233694230e+01 1.0345509691280512e+02 0 0 0
3915 2 -1.7538711280835487e-01 1.8394647308639744e+01 6.9111164659592049e+01 1.0454333853281447e+02 0 0 0
3919 4 1.7153137060573900e-01 1.8177714698261255e+01 7.0146018627885510e+01 1.0503791281252165e+02 0 0 0
3913 2 -2.4749507864460607e-01 1.7174182131861059e+01 6.8183532672558229e+01 1.0466320499114377e+02 0 0 0
3921 1 -5.3604598663385894e-01 2.0899868305703116e+01 6.9286278047896957e+01 1.0487024005455154e+02 0 0 0
3783 5 -9.9340348352121410e-02 1.7604050821253001e+01 7.4032361779374853e+01 1.0324218781327244e+02 0 0 0
2856 4 1.4733289161042007e-01 1.9616785550838276e+01 7.1678771083514761e+01 1.0626326272770014e+02 0 0 -1
2855 4 1.8200293909942380e-01 1.8933708928351251e+01 7.3148634818863187e+01 1.0659064409357906e+02 0 0 -1
2852 2 2.2206212507994722e-02 1.9811884992794042e+01 7.2563545791647186e+01 1.0696685490998415e+02 0 0 -1
2850 1 -4.5710449679453230e-01 2.1143100683597151e+01 7.3163222241747775e+01 1.0699475411459730e+02 0 0 -1
2236 5 -9.7035424693256725e-02 1.8170687276581145e+01 6.5934982503782521e+01 1.0107175330666009e+02 0 0 0
3917 4 1.1592314253738582e-01 1.7172709244857966e+01 6.7814111756275395e+01 1.0575387348919820e+02 0 0 0
3784 4 1.9573068631962040e-01 1.6130633678821699e+01 7.2485310357761023e+01 1.0501346368342229e+02 0 0 0
3912 2 3.6720864001795200e-01 1.5838827806274933e+01 6.8745878571005647e+01 1.0422833015169384e+02 0 0 0
3780 2 -1.7444605265668314e-01 1.6020071721294794e+01 7.2916476071129367e+01 1.0399412078352411e+02 0 0 0
3911 1 -5.5177653810784422e-01 1.5960489665837581e+01 6.9529269277261861e+01 1.0323378510209058e+02 0 0 0
3790 4 1.1242620854158823e-01 2.0960119157182682e+01 7.4001907505518503e+01 1.0198380686705947e+02 0 0 0
3728 5 -1.1879974964131011e-01 1.7429090084632833e+01 7.3292284387479995e+01 1.0064951614622252e+02 0 0 0
3725 2 -1.7881547599230263e-01 1.5718652687154803e+01 7.2251615801257785e+01 1.0090378856440927e+02 0 0 0