LAMMPS data file via write_data, version 23 Jun 2022, timestep = 500000

8160 atoms
5 atom types

59.582874859362505 109.81712514058688 xlo xhi
57.028250495309514 92.97174950464907 ylo yhi
76.57868157131536 123.42131842869937 zlo zhi

Masses

1 15.999
2 12.011
3 14.007
4 1.008
5 32.06

Atoms # charge/kk

1619 2 3.6333251718856230e-01 6.4524975420567529e+01 6.0348113006688060e+01 7.7974283458177865e+01 0 0 0
1622 1 -5.4255701426868463e-01 6.3428112739605140e+01 6.0674849309366813e+01 7.8549223606749990e+01 0 0 0
6113 2 -1.8533084547746032e-01 6.5186506245629090e+01 5.8103647006779305e+01 8.0303713838631410e+01 0 0 0
6116 4 1.4925324514911381e-01 6.4407222373394262e+01 5.8916959761901026e+01 8.0491360116759012e+01 0 0 0
1722 4 1.2836182848341315e-01 6.0076237779091954e+01 5.9684369539092778e+01 8.2979950628875031e+01 0 0 0
1719 4 1.5227831614891679e-01 6.1584596851518107e+01 6.1991128183106703e+01 8.3310935549183284e+01 0 0 0
1725 4 1.2272529783263189e-01 6.2932159896420181e+01 5.9558457880759931e+01 8.1714545514221484e+01 0 0 0
1718 4 1.4889297017884620e-01 6.1877071903804541e+01 6.2038109803776763e+01 8.1557110161160182e+01 0 0 0
1715 2 -2.3812111684395532e-01 6.1083618186874439e+01 6.1710690549190659e+01 8.2340360476573693e+01 0 0 0
1585 4 1.8205521088930077e-01 6.3895470438469381e+01 6.6744891666307893e+01 7.9020228219671026e+01 0 0 0
1723 5 -9.5574552067001092e-02 6.3086405949574399e+01 5.9958150678313409e+01 8.4470846478387799e+01 0 0 0
1749 4 1.9340632125558252e-01 6.0820780660929053e+01 6.2405318648998275e+01 8.5274388481239754e+01 0 0 0
1726 5 -1.1509373281213575e-01 6.4161072815248730e+01 5.7728859927536554e+01 8.4750147754730278e+01 0 0 0
1580 4 1.4914178038383163e-01 6.1291104843308247e+01 6.4426677182007239e+01 7.9900018008060187e+01 0 0 0
1720 2 -1.8315155872253949e-01 6.2230060881653884e+01 5.9470707134506696e+01 8.2586576459261437e+01 0 0 0
1814 5 -1.1276664267654642e-01 6.4925310511276706e+01 5.7323620554303545e+01 8.7132459702370085e+01 0 0 0
1584 2 4.9800974244568680e-01 6.3991110142326328e+01 6.8238192674287646e+01 8.0623208640207395e+01 0 0 0
1717 2 -1.6367527684961558e-01 6.0855792191242188e+01 6.0137721077441952e+01 8.2248179293617923e+01 0 0 0
1772 4 2.3037272865940081e-01 6.0950509853385860e+01 6.7894196533262374e+01 8.5071561590460092e+01 0 0 0
1747 2 -1.7493399617190536e-01 6.0040221800302611e+01 6.1661180313194016e+01 8.5569856568537034e+01 0 0 0
1788 3 -4.7960706424927402e-01 6.4389367850965357e+01 6.4196826261822139e+01 8.8283119533503765e+01 0 0 0
1568 4 1.5070399791287378e-01 6.1481843405897585e+01 6.0358588232087669e+01 7.7403286629060219e+01 0 0 0
1777 4 1.5361609219519415e-01 6.3223084673659926e+01 6.7737696930399181e+01 8.3921752324465814e+01 0 0 0
1579 4 1.3268964727730065e-01 6.0352732813804678e+01 6.5554804569928805e+01 8.0856251431963216e+01 0 0 0
1746 5 -1.0952429694035193e-01 6.0824763949097665e+01 5.9699862823755382e+01 8.5793668295210054e+01 0 0 0
1783 4 1.1122724793653752e-01 6.3137971951395649e+01 6.6414230139968311e+01 8.7699549768741377e+01 0 0 0
1724 4 1.1308609009802437e-01 6.2080297817018526e+01 5.8366054623960309e+01 8.2514329338828759e+01 0 0 0
1785 4 1.3545623264192744e-01 6.2998211632022169e+01 6.2592787692503776e+01 8.6986069325122983e+01 0 0 0
1578 2 -1.7635468784329814e-01 6.2482485517945705e+01 6.6158193041176688e+01 8.0694554677324561e+01 0 0 0
6117 4 9.6135181577866088e-02 6.4557260965761984e+01 5.7239911190557436e+01 7.9935810456400944e+01 0 0 0
1781 2 1.1062406143358369e-01 6.3296774070401320e+01 6.5950896524962090e+01 8.6683244783005549e+01 0 0 0
1609 4 1.0385984545803149e-01 6.5197243954023861e+01 6.3064978719988190e+01 8.1342593742995248e+01 0 0 0
1779 4 1.0182587667190858e-01 6.1001495193029740e+01 6.6126656198233690e+01 8.6718038614055502e+01 0 0 0
1581 2 -2.4560819346261137e-01 6.3219009506577052e+01 6.7266605870736512e+01 7.9744340574706868e+01 0 0 0
1586 4 1.7597457882246120e-01 6.2587570036336395e+01 6.7864533044792182e+01 7.8998760819206467e+01 0 0 0
1773 4 1.4100352073631711e-01 6.1647038851962122e+01 6.5304112360472544e+01 8.3932889655992014e+01 0 0 0
1775 2 8.0535351492959151e-02 6.1831495101777961e+01 6.5578213294847174e+01 8.6135504181527963e+01 0 0 0
1576 5 -1.1983639648608616e-01 6.0775135218258946e+01 6.6304505385609104e+01 7.8360991263087300e+01 0 0 0
1776 4 9.3748785481078609e-02 6.3712895060713016e+01 6.6207899738312861e+01 8.3520572827654064e+01 0 0 0
1780 1 -5.2377465885792907e-01 6.1751131521790619e+01 6.4142249302514216e+01 8.6064683845186877e+01 0 0 0
1587 1 -5.8083070596468334e-01 6.5270561482752711e+01 6.8318415625804576e+01 8.0019423015670682e+01 0 0 0
1782 2 -1.1951199646923684e-02 6.3004257145809191e+01 6.3489276556016335e+01 8.6362769798914044e+01 0 0 0
1577 2 -1.7479087724707357e-01 6.1183290673782579e+01 6.5525863825919402e+01 8.0081278758756014e+01 0 0 0
1774 2 -2.3917706932900401e-03 6.3320245733995037e+01 6.6699671510467596e+01 8.4430785660136905e+01 0 0 0
1778 1 -5.2780896679921396e-01 6.4012106447627261e+01 6.6699596237792178e+01 8.5701856622723739e+01 0 0 0
1784 2 -1.7801852441859427e-02 6.3976351672859259e+01 6.4577370439158329e+01 8.6894541398891377e+01 0 0 0
1787 4 1.4597873667485367e-01 6.5003612784965682e+01 6.4594048647199159e+01 8.6392934368554805e+01 0 0 0
1786 4 1.0815443828303835e-01 6.3488114400057725e+01 6.2912459501099704e+01 8.5502521315242262e+01 0 0 0
1583 4 1.4270535868597212e-01 6.2160775951781851e+01 6.6673028100648011e+01 8.1698399834231068e+01 0 0 0
1771 2 -1.8704947269402351e-02 6.1894060751249718e+01 6.6121046118739883e+01 8.4669807651969364e+01 0 0 0
1769 3 -4.9517268700395084e-01 6.0899605723408499e+01 6.7216004898654887e+01 8.4315663012952996e+01 0 0 0
1582 4 1.2003677559964948e-01 6.3275304263185120e+01 6.5362449671316199e+01 8.0834317247952015e+01 0 0 0
1574 4 1.4889337914621126e-01 6.2185039456480204e+01 6.3447532923711691e+01 7.7444843485935522e+01 0 0 0
3263 4 1.5708981757329735e-01 6.0089834763908009e+01 6.8496721889218605e+01 8.2259296466213371e+01 0 0 0
1588 1 -5.9483805357659847e-01 6.3591430525055074e+01 6.8700001891349046e+01 8.1734433986538150e+01 0 0 0
1569 4 1.8097141947144318e-01 6.0716493524726147e+01 6.1527759027050173e+01 7.8422897851716399e+01 0 0 0
6119 2 -1.8826263368176696e-01 6.5804599622068565e+01 5.7702942027430147e+01 8.1819230816606051e+01 0 0 0
1598 4 1.4436929629557274e-01 6.5730496087215727e+01 6.7410336045868078e+01 8.3014863760197741e+01 0 0 0
6118 4 1.2211571274000169e-01 6.4930390048398095e+01 5.7328929929123490e+01 8.2502822790394390e+01 0 0 0
1562 4 1.3023282850778978e-01 5.9737014371077613e+01 5.8585199860837371e+01 7.8430084835226168e+01 0 0 0
1714 2 4.8848355986121383e-01 5.9787669510363934e+01 6.2454984126200351e+01 8.2086663418951886e+01 0 0 0
1721 4 1.4289465301479840e-01 6.0452167562171411e+01 5.9899049212473784e+01 8.1220521960511448e+01 0 0 0
1564 2 -1.7238818720429996e-01 6.0550783974915348e+01 6.1108757001117631e+01 7.7389796897052591e+01 0 0 0
1753 4 1.5335114374190753e-01 5.9899025727614628e+01 6.1821643200170371e+01 8.7767559388412749e+01 0 0 0
1732 4 1.7995778942245033e-01 6.2297857933440632e+01 5.7568939746369885e+01 8.6654549461345496e+01 0 0 0
3155 4 2.6379192151247915e-01 6.5050913155343224e+01 6.8905043039763086e+01 8.6915676792098225e+01 0 0 0
1987 4 1.4696834484256607e-01 6.6135908473620574e+01 5.9195301489499045e+01 8.3514110410989289e+01 0 0 0
1602 4 1.7722718284066000e-01 6.5682995491054882e+01 6.4881353553221430e+01 8.2340174281938587e+01 0 0 0
2992 2 5.3259822664033363e-01 6.5131354634430494e+01 6.8665282189671402e+01 7.6721141426534558e+01 0 0 0
1573 5 -1.2517033602035732e-01 5.9659351758416868e+01 6.4489436956746843e+01 7.7464004841872864e+01 0 0 0
3171 5 -1.2366974650326180e-01 7.1511195857382759e+01 6.8899725717285008e+01 7.9601217246381196e+01 0 0 0
1735 4 1.2706682545867978e-01 5.9907816983896168e+01 5.7280776467811805e+01 8.5561540991636207e+01 0 0 0
3450 4 1.1748538009193098e-01 5.9907242719556571e+01 6.7860178342337235e+01 8.7842203183468726e+01 0 0 0
1570 2 -1.8236138726850376e-01 6.1268674688276370e+01 6.3543928233245119e+01 7.6806361212319999e+01 0 0 0
3154 4 1.7035016728064301e-01 6.5460891943716916e+01 6.8217036996710789e+01 8.5398494003638547e+01 0 0 0
1613 4 1.4017528947235541e-01 6.5748170602643413e+01 6.0960885498686146e+01 8.0865948351056304e+01 0 0 0
3160 4 1.4706458018644158e-01 6.7534376705202476e+01 6.7447437008289754e+01 8.5290106612055510e+01 0 0 0
3169 4 1.6156826712385061e-01 7.0242001583128854e+01 6.7520946775883928e+01 8.2601344946323252e+01 0 0 0
5949 4 1.8791705561652516e-01 6.8130951562439989e+01 5.7427747495303429e+01 8.4220617236420196e+01 0 0 0
5757 4 1.1981455100432331e-01 7.1727326533350990e+01 6.0320221557241254e+01 7.6802541758751730e+01 0 0 0
6282 4 1.0996158516538308e-01 6.9653184146713485e+01 5.9648105565270875e+01 8.8022912335286648e+01 0 0 0
3159 1 -5.6607736702203615e-01 6.9208431211320161e+01 6.8873754681341723e+01 8.5315399329452433e+01 0 0 0
1985 2 -2.2911795519555497e-01 6.6375125712246927e+01 5.8922562845977687e+01 8.2473388753974433e+01 0 0 0
5770 4 1.8910598391853986e-01 7.1402706497541345e+01 6.5572169181644000e+01 7.9867235870527736e+01 0 0 0
5933 2 -2.6723541068224566e-01 7.1382593708869351e+01 5.9119997147111583e+01 8.5691579106684827e+01 0 0 0
5762 2 -1.7943825577021660e-01 7.0066386237553075e+01 6.4990748070214678e+01 7.8243290681027958e+01 0 0 0
7455 4 2.1581363321653443e-01 7.1244825832960288e+01 6.5358294422155396e+01 8.3079991142851568e+01 0 0 0
5925 4 1.4657258953877622e-01 7.1020520061379244e+01 5.9086330497453069e+01 7.9370169301955343e+01 0 0 0
1589 2 4.6527660291441723e-02 6.6283513993141469e+01 6.8809605107075569e+01 8.0934990957916696e+01 0 0 0
1804 1 -6.1831266667941398e-01 7.1682124509746288e+01 6.2231127620601079e+01 8.6253844456474994e+01 0 0 0
1986 4 2.0719867149554302e-01 6.7276400733950766e+01 5.9382825355012613e+01 8.2041634708265406e+01 0 0 0
1618 3 -4.0946665814022976e-01 6.5871517224955184e+01 6.0046575724669665e+01 7.8599721309515886e+01 0 0 0
6112 2 -1.0976407298349772e-01 6.6325971077627742e+01 5.8534024250246524e+01 7.9407181907750640e+01 0 0 0
6114 4 1.4065464823583446e-01 6.6562870961226409e+01 5.7753970167376409e+01 7.8617329611394922e+01 0 0 0
1615 4 1.3353599495210966e-01 6.6073070360470467e+01 6.2568675892380924e+01 7.7363257230722212e+01 0 0 0
1797 4 1.3760159034968081e-01 6.7463433412854883e+01 6.4578491721477945e+01 8.6771905795303724e+01 0 0 0
7448 2 -2.2037136672547236e-01 7.2039986289414671e+01 6.3466006077725510e+01 8.3777548069581997e+01 0 0 0
1802 2 4.8254485880188747e-01 7.1316100440188421e+01 6.2976211086649194e+01 8.7222047391157687e+01 0 0 0
5766 4 1.2765910208246803e-01 7.0193510226396725e+01 6.4957278292902274e+01 7.7127891114807753e+01 0 0 0
5765 2 -1.8445006811148715e-01 7.0989909300197212e+01 6.6022256801575878e+01 7.8965930043090836e+01 0 0 0
5769 4 1.6936906220323267e-01 7.1913903403852046e+01 6.6074840879585210e+01 7.8432380764585332e+01 0 0 0
1594 4 1.6181328752761701e-01 6.6617841960310898e+01 6.6696658662860472e+01 8.0728311036994583e+01 0 0 0
1818 4 1.1365612352821414e-01 6.7455924864396266e+01 5.8038961011675497e+01 8.7700412801040855e+01 0 0 0
1593 2 -2.5097313367766927e-01 6.6809470379644665e+01 6.7292044024584243e+01 8.2850108052038948e+01 0 0 0
1597 4 1.7661468663000626e-01 6.7235250768687081e+01 6.8090604458565053e+01 8.3584147003910644e+01 0 0 0
7458 4 1.3689191140605847e-01 7.1982942224589991e+01 6.6163166044930733e+01 8.5701427780526743e+01 0 0 0
5922 1 -5.9641969179127474e-01 6.8721057800029598e+01 5.7098605291701944e+01 7.9778205773192155e+01 0 0 0
1595 4 1.3056394139542335e-01 6.8165608691667074e+01 6.7497933517070209e+01 8.1105286717747489e+01 0 0 0
3165 2 -1.6356216913512892e-01 7.0458428388054074e+01 6.8600106449421148e+01 8.2318857389134664e+01 0 0 0
5767 4 1.2821359767477258e-01 6.8938442952386396e+01 6.5294714175371851e+01 7.8264926958258599e+01 0 0 0
1599 3 -4.3866744975770439e-01 6.6686117129859781e+01 6.4589928050572212e+01 8.2665388744798435e+01 0 0 0
1600 1 -5.2978479056337358e-01 6.8375273224975786e+01 6.5888607875705020e+01 8.3790131448856400e+01 0 0 0
3168 2 -2.0485220837961210e-01 7.1853997941590436e+01 6.8580614031417781e+01 8.1617602399220047e+01 0 0 0
5934 1 -5.8588694041638856e-01 6.9701851997933588e+01 5.8770582646712477e+01 8.4025100858644151e+01 0 0 0
5929 1 -5.6893476841010926e-01 7.1953495115281001e+01 5.9687291463802218e+01 8.3451386002456331e+01 0 0 0
1605 2 6.9692972765052472e-02 6.6148217729297016e+01 6.3112685148463385e+01 8.0690657884916874e+01 0 0 0
3156 2 3.8648273423548721e-02 6.8099492898450507e+01 6.8214409449760495e+01 8.5927543501430847e+01 0 0 0
1601 2 -2.0128641360174577e-02 6.7267963330289888e+01 6.3828425179533212e+01 8.1498896502623197e+01 0 0 0
1743 5 -9.9622714753986208e-02 6.1702269885892754e+01 5.9977290336452654e+01 8.8144445337686420e+01 0 0 0
1590 2 -1.9646356727269285e-01 6.7074513344934900e+01 6.7537056760758873e+01 8.1366633296260119e+01 0 0 0
1799 1 -5.8006216940069044e-01 7.0043329912793283e+01 6.3513260128819901e+01 8.7608654702531013e+01 0 0 0
5768 5 -1.3238285881543890e-01 6.9903218662202917e+01 6.7683020019297544e+01 7.9337725405049596e+01 0 0 0
1610 1 -4.8992272013802035e-01 6.6121397726440520e+01 6.3630513054398286e+01 7.9290788472521598e+01 0 0 0
1612 2 7.4806405405647110e-04 6.6650145257050539e+01 6.2670083598854539e+01 7.8334855194622762e+01 0 0 0
7454 4 1.7071844663804286e-01 7.0437543476365519e+01 6.4767677827511960e+01 8.4511173649589082e+01 0 0 0
7452 4 2.0340845152718620e-01 7.1345550219487095e+01 6.2715378576684756e+01 8.4139473653177390e+01 0 0 0
5921 2 -2.3491444433394851e-01 7.0434999964355910e+01 5.8521972409857192e+01 8.0177240963522891e+01 0 0 0
1620 4 2.3283141990884740e-01 6.6461872619824959e+01 5.9815590351082683e+01 7.7723402860177060e+01 0 0 0
1614 2 -3.5085861953241988e-02 6.6791113455466714e+01 6.1323989459244288e+01 7.9120504710738984e+01 0 0 0
6115 4 1.8667531444128288e-01 6.7360332486308010e+01 5.8573130123782349e+01 7.9954227727817738e+01 0 0 0
5923 2 -1.9648164113534472e-01 7.1274369656443326e+01 5.8412897707833636e+01 8.1426832145881690e+01 0 0 0
1611 2 9.2266913798329450e-02 6.6636155441331780e+01 6.1624685711029343e+01 8.0606901634535163e+01 0 0 0
1617 4 1.6911996730027232e-01 6.7792408632051419e+01 6.0847771859588178e+01 7.8906878966846293e+01 0 0 0
5924 4 1.8172871650477290e-01 6.9487460383534966e+01 5.9117327715589774e+01 8.0422641748152415e+01 0 0 0
5759 2 4.8099938273253068e-01 7.0497959815515244e+01 6.2482279029217125e+01 7.7780913217653037e+01 0 0 0
5761 1 -6.2489047387097119e-01 6.9560142711830082e+01 6.1714871002476890e+01 7.7391871005085505e+01 0 0 0
1608 1 -5.0530939700766309e-01 6.7832156357498391e+01 6.1396990439898794e+01 8.1432711490668439e+01 0 0 0
5919 2 3.6334602596473914e-01 6.9992802001107336e+01 5.7160087613540568e+01 7.9641510328060633e+01 0 0 0
5764 4 2.0945891964453631e-01 7.1038693942596254e+01 6.3425289242836918e+01 7.9611258079876933e+01 0 0 0
5930 4 1.4693340376110214e-01 7.1031689456393210e+01 6.0534072714726719e+01 8.1674102486051822e+01 0 0 0
5926 2 3.9904922296263398e-02 7.1685034023330374e+01 5.9785365307297127e+01 8.2025601920011297e+01 0 0 0
1815 2 -1.8142776026385049e-01 6.6855870141586308e+01 5.7669733638729944e+01 8.6808775265098660e+01 0 0 0
5756 1 -5.9425606116869989e-01 7.1906916652251482e+01 6.2407471953130596e+01 7.7536254966901268e+01 0 0 0
5937 4 1.3770618605091481e-01 7.0600224314062075e+01 5.9113265322644821e+01 8.6482697648523597e+01 0 0 0
5932 2 4.9367074072723510e-01 7.0869046359867852e+01 5.9187286520944895e+01 8.4293173551911437e+01 0 0 0
7450 2 -1.6334710918679021e-01 7.1486015597338138e+01 6.4826896943135466e+01 8.4041480166010729e+01 0 0 0
1817 4 1.3371313744175967e-01 6.7038910805062841e+01 5.8513319098541380e+01 8.6063481442094627e+01 0 0 0
5939 4 1.3153933936119397e-01 7.1790502666731300e+01 5.7107421486037268e+01 8.6606953139872303e+01 0 0 0
2997 4 1.9845302457760053e-01 6.6305884848435340e+01 6.7863461465958977e+01 7.8331235077268360e+01 0 0 0
5763 4 1.5517338356847685e-01 6.9267492656875689e+01 6.3236793315819149e+01 7.9321799352128721e+01 0 0 0
1604 2 1.4953406051845421e-02 6.8254697879164425e+01 6.2668966395520840e+01 8.1914142791611411e+01 0 0 0
1607 4 1.5200896842213010e-01 6.8361658585956548e+01 6.2845025546030719e+01 8.3039109766050672e+01 0 0 0
1636 4 1.6568508862246117e-01 6.8938515446692719e+01 5.8910585922720941e+01 7.6948046695399768e+01 0 0 0
1606 4 1.5352274317033812e-01 6.9286155247012275e+01 6.3049544971254974e+01 8.1548491329588515e+01 0 0 0
1801 4 1.0502081846629840e-01 6.8869042725330019e+01 6.1857011507237800e+01 8.6576399267181870e+01 0 0 0
1795 4 1.5678789572678556e-01 6.6996433390217263e+01 6.1716981548730942e+01 8.7818671799379089e+01 0 0 0
5936 4 1.9511396567996339e-01 7.1959393130359672e+01 6.0036909087986501e+01 8.5922312150518337e+01 0 0 0
1794 4 1.1711078747563619e-01 6.6114611266239478e+01 6.2360508832131593e+01 8.6455470344778291e+01 0 0 0
1616 4 1.4669635177195983e-01 6.7677221897615226e+01 6.2982026434028114e+01 7.7880341913601200e+01 0 0 0
5760 2 -2.6819097049042773e-01 7.0288253250834984e+01 6.3479294851958151e+01 7.8846273117075725e+01 0 0 0
2995 2 -1.6848710826394181e-01 6.6220636143832849e+01 6.6407528646160642e+01 7.6653216493779510e+01 0 0 0
5928 4 1.8106478928466493e-01 7.0715390686024804e+01 5.7765138781275105e+01 8.2136055367940983e+01 0 0 0
1800 4 1.2074035378252845e-01 6.9018520991808956e+01 6.3202333347322167e+01 8.5668714058610050e+01 0 0 0
7449 1 -5.7454750429937418e-01 7.1470352718623587e+01 6.3907021403993859e+01 8.1640585443147174e+01 0 0 0
2993 2 -2.7462595355415614e-01 6.6318608319955246e+01 6.7937846061282755e+01 7.7207194670839840e+01 0 0 0
1596 2 3.5276692650051789e-01 6.7304933361231434e+01 6.5845420424186628e+01 8.3098602669130898e+01 0 0 0
2999 4 1.5999844161720517e-01 6.6117522176771800e+01 6.5707634224050267e+01 7.7484000358935774e+01 0 0 0
3161 4 1.1330523579959730e-01 6.8376599083152129e+01 6.7482632964425420e+01 8.6800439582712215e+01 0 0 0
1603 4 1.3108661882758840e-01 6.7915439140324466e+01 6.4461598584218137e+01 8.0767294109122389e+01 0 0 0
1796 2 3.8517658329980588e-02 6.9000717600572173e+01 6.3004468873297270e+01 8.6770645533497600e+01 0 0 0
2996 4 1.7683372867851180e-01 6.7265793995310773e+01 6.8504533628917983e+01 7.6980642801800045e+01 0 0 0
1791 2 -2.2920548364415602e-01 6.6543113524226129e+01 6.2705456521959107e+01 8.7495329936965703e+01 0 0 0
1793 2 -2.1029210525593872e-01 6.7637579262405424e+01 6.3658118048713717e+01 8.7394286345178557e+01 0 0 0
6284 5 -7.5092509581710987e-02 6.4150120486616643e+01 5.9495146412821960e+01 8.8094502385826416e+01 0 0 0
1767 4 1.9242230369180083e-01 5.9605339262521937e+01 6.4918467895720951e+01 8.4911279419462375e+01 0 0 0
3170 4 1.3436795328988654e-01 6.9612884713163453e+01 6.8867369674556585e+01 8.1576192696476866e+01 0 0 0
1627 4 1.2152342331410444e-01 6.3405854698189074e+01 5.8425401938956966e+01 7.6657650875882794e+01 0 0 0
6285 2 -1.8677707855990963e-01 6.4338920985992686e+01 5.9065551828894066e+01 9.0232279418887913e+01 0 0 0
6288 4 1.3102378181803570e-01 6.3797245485868658e+01 5.8161021957208256e+01 9.0534315290958801e+01 0 0 0
6286 2 -1.7607117628472108e-01 6.3713716669628624e+01 6.0238803389934901e+01 9.1001057245697083e+01 0 0 0
2156 2 -1.8927625961510261e-01 6.3634502554089615e+01 5.9927232296010452e+01 9.2598760022534393e+01 0 0 0
6289 4 1.8572299142827861e-01 6.4177602459917594e+01 6.1216738275916796e+01 9.0784180968126861e+01 0 0 0
6290 4 1.3917934615519073e-01 6.2658574912293545e+01 6.0406912491188137e+01 9.0622978894381433e+01 0 0 0
2160 4 1.7079965333089506e-01 6.4641725599765252e+01 6.0081256833136059e+01 9.3086073061403852e+01 0 0 0
2155 2 -1.8491800927050969e-01 6.2565915129847419e+01 6.0776800268340672e+01 9.3386665984446353e+01 0 0 0
2159 4 1.6477495655428112e-01 6.3338007754490214e+01 5.8832329504995577e+01 9.2756179394141327e+01 0 0 0
6287 4 1.9938891243803902e-01 6.5354820201163946e+01 5.8859698046370596e+01 9.0545347132802803e+01 0 0 0
2158 4 1.1579794614218243e-01 6.1897721634973074e+01 6.1449736695753408e+01 9.2727593528447400e+01 0 0 0
2157 4 1.6031166068604577e-01 6.1695614292736678e+01 6.0171532316408523e+01 9.3688438384407348e+01 0 0 0
1922 4 1.5325582734122065e-01 6.0211531043004349e+01 6.4164971855782568e+01 9.4155813669677769e+01 0 0 0
2154 5 -8.8408509498675750e-02 6.3627839780535574e+01 6.1544355026218831e+01 9.5025107994808721e+01 0 0 0
757 4 1.2661900874536344e-01 6.5758240905751293e+01 5.8499604809925493e+01 9.5951246445807087e+01 0 0 0
746 2 3.4939675975274387e-01 6.3735623582318425e+01 5.8502470133879939e+01 9.8458024408771038e+01 0 0 0
2135 4 2.0177850002446809e-01 6.2449581757586394e+01 6.7214968918467065e+01 9.6702108641689534e+01 0 0 0
752 4 2.8072610786224506e-01 6.5205843431462327e+01 5.9522308431520777e+01 9.7677261884694303e+01 0 0 0
749 3 -4.7519142476128168e-01 6.5179274718421794e+01 5.8789701297007284e+01 9.8393679694474130e+01 0 0 0
1745 4 1.0774940060925382e-01 6.1621477960736847e+01 5.7190302958135383e+01 8.9044927817440026e+01 0 0 0
2323 4 1.2232402230417871e-01 6.1889586338194860e+01 6.2000805033679292e+01 9.7673449302448816e+01 0 0 0
2132 1 -6.2980083651926844e-01 6.0387898603190429e+01 6.8181337107485149e+01 9.6538087398178604e+01 0 0 0
1740 2 -1.7552832354215214e-01 6.1026320593357291e+01 5.8163906638806168e+01 8.8994914314422701e+01 0 0 0
1790 4 2.3212317290075224e-01 6.3500528147470774e+01 6.3770531421207124e+01 8.8539627372877035e+01 0 0 0
743 2 -2.4480274862185916e-01 6.2618810163419163e+01 5.9543305587856267e+01 9.8348528837363702e+01 0 0 0
739 2 1.2893851956820629e-02 6.0144761641381599e+01 5.9782035486255154e+01 9.9155569970161935e+01 0 0 0
740 2 -1.8138932066542179e-01 6.1226272257147819e+01 5.8888910967794089e+01 9.8388616859761427e+01 0 0 0
2317 4 1.6018677300874382e-01 6.3935588963759855e+01 6.1985207981364013e+01 9.8560796180646960e+01 0 0 0
747 4 1.2753274326395186e-01 6.2731608229247378e+01 6.0216380820054837e+01 9.7434773458016892e+01 0 0 0
1923 4 1.5511456655002162e-01 6.0327871959287265e+01 6.2573689932938393e+01 9.3421248511014852e+01 0 0 0
2290 1 -4.9509111167268571e-01 6.3866681615436853e+01 6.7540267690991271e+01 9.8235573276377878e+01 0 0 0
2144 1 -6.3226070314096938e-01 6.1717899009082487e+01 6.5931666128183394e+01 9.2423097693143760e+01 0 0 0
1744 4 1.2839798056110605e-01 6.1094542068445939e+01 5.8382552707867504e+01 9.0097941560634183e+01 0 0 0
2315 2 -1.6777551748762504e-01 6.2952686668899119e+01 6.3824523970967277e+01 9.8229168673788578e+01 0 0 0
2128 3 -4.7425348027724523e-01 5.9863777379943073e+01 6.6631196149298020e+01 9.4664792214556229e+01 0 0 0
2319 4 1.3777629979176867e-01 6.2542484922686079e+01 6.4017928857376774e+01 9.9302390191729799e+01 0 0 0
2313 2 -2.2781164064234641e-01 6.4223293455000544e+01 6.2982836797038139e+01 9.8245248774323670e+01 0 0 0
2318 2 -1.8871920102906417e-01 6.1952511756205347e+01 6.3087701244086205e+01 9.7374105797922795e+01 0 0 0
2131 2 -2.4269130453485357e-01 6.2215521283889764e+01 6.7250732459315316e+01 9.5616181023049350e+01 0 0 0
2289 4 1.1322483390922618e-01 6.1902579537069457e+01 6.7661358474863007e+01 9.9328390297742018e+01 0 0 0
2321 5 -1.1753593504737403e-01 6.2446740773004144e+01 6.3551383907826057e+01 9.5416019929837859e+01 0 0 0
2320 4 1.6894754423215966e-01 6.3170507640304017e+01 6.4896254517552705e+01 9.7848504878619053e+01 0 0 0
2129 2 3.7049620595906335e-01 6.0738442308711704e+01 6.7405115033873500e+01 9.5572235682199590e+01 0 0 0
2322 4 1.3279517778518049e-01 6.0920629894053945e+01 6.3421858723417500e+01 9.7710168846761277e+01 0 0 0
2148 2 -1.6469884546995892e-01 6.4294208992756509e+01 6.3688970245428884e+01 9.2266505869300687e+01 0 0 0
2134 4 1.5882728829597789e-01 6.2522809709135061e+01 6.6183954625399906e+01 9.5305034058227193e+01 0 0 0
2152 4 1.4190770952908649e-01 6.3996445007638776e+01 6.2953367375613048e+01 9.1427168845104688e+01 0 0 0
2146 4 1.5170066021729275e-01 6.3069675689108024e+01 6.5238893985093185e+01 9.0323196262701913e+01 0 0 0
2143 2 -2.4493552816213851e-01 6.3745999915814117e+01 6.5785381624602792e+01 9.1052316659825621e+01 0 0 0
2292 2 1.3818735993960628e-02 6.5159387443650061e+01 6.7377182638453519e+01 9.8875481896547100e+01 0 0 0
2136 2 4.0458419940344673e-02 6.2648335795976351e+01 6.8499672689061157e+01 9.3265929432668415e+01 0 0 0
2147 4 1.5566196834521961e-01 6.4198519331882324e+01 6.6661432273139837e+01 9.0478850378838032e+01 0 0 0
2138 4 1.7179858355392594e-01 6.4057059159904611e+01 6.8240296434172848e+01 9.4896261002632201e+01 0 0 0
2153 4 1.6665733717688017e-01 6.3323723429642321e+01 6.4025038366621516e+01 9.2683488007443955e+01 0 0 0
2145 2 -1.7180548801761902e-01 6.4885405964849227e+01 6.4903552934658023e+01 9.1494006128911280e+01 0 0 0
2133 2 -1.7174334456807031e-01 6.2918307370018503e+01 6.8345818597746842e+01 9.4805972749595583e+01 0 0 0
2142 2 5.0920168854822767e-01 6.2909872308133743e+01 6.6321068752962134e+01 9.2240672464669942e+01 0 0 0
2139 1 -5.8759385546077814e-01 6.3492335682518330e+01 6.7581892281789848e+01 9.2486678441935155e+01 0 0 0
2130 4 2.6757288444931560e-01 6.0505549955135635e+01 6.6330916550420653e+01 9.3900199214320281e+01 0 0 0
742 4 1.1714231167443473e-01 6.0649754781858590e+01 6.0631477696423481e+01 9.9653986036147359e+01 0 0 0
748 4 1.1048931910498297e-01 6.2622397650035872e+01 6.0357756143630368e+01 9.9166304091316675e+01 0 0 0
2285 2 7.5786325816400671e-02 6.2967295554815443e+01 6.8163030056486392e+01 9.9230670189816337e+01 0 0 0
2141 4 1.8402196518468455e-01 6.1531473785425291e+01 6.8449902587461665e+01 9.3229073352127713e+01 0 0 0
745 4 1.7745343999411944e-01 6.0888017773626011e+01 5.8560583431576156e+01 9.7389355246403071e+01 0 0 0
3448 2 -1.6256687926338240e-01 6.1593975001244623e+01 6.8773711177236876e+01 8.9092945956655001e+01 0 0 0
3465 4 2.0323358030803662e-01 6.5045473395256238e+01 6.8311962847078448e+01 9.1386146454062995e+01 0 0 0
3447 2 -1.8912794604952970e-01 6.0103960791662651e+01 6.8680297333235600e+01 8.8618875240991088e+01 0 0 0
2125 4 1.6954356684999133e-01 5.9792081946380080e+01 6.6790546244817619e+01 9.2106122279459200e+01 0 0 0
3452 4 1.1780041448523842e-01 6.2090154848923007e+01 6.7783658601528202e+01 8.8784988501007092e+01 0 0 0
2151 5 -9.1351811925645926e-02 6.5601605496419992e+01 6.2885983421789994e+01 9.3586351647113702e+01 0 0 0
1737 2 -1.8223473272869886e-01 5.9656395984892981e+01 5.7856426029336262e+01 8.8486639799660736e+01 0 0 0
750 1 -5.8310700047810338e-01 6.3187800002842316e+01 5.7379391746395044e+01 9.8725551403478889e+01 0 0 0
3453 4 1.6028496921724156e-01 6.1670033572266178e+01 6.8720238483413681e+01 9.0271615082957680e+01 0 0 0
2150 4 1.4310052278735086e-01 6.5615411438753313e+01 6.5447284951762967e+01 9.2138516454808226e+01 0 0 0
2316 4 2.0248793726693901e-01 6.4553865779533155e+01 6.2774104060243175e+01 9.7174486923557197e+01 0 0 0
2295 4 2.0528396055613593e-01 6.5588983281926957e+01 6.6373857081392089e+01 9.8825476197412712e+01 0 0 0
1807 4 1.4643387319887169e-01 7.2020060599567586e+01 6.4798523314331831e+01 8.8359578332233738e+01 0 0 0
744 4 1.7682142295334385e-01 6.1343207168832116e+01 5.7937447596752854e+01 9.9005627919018636e+01 0 0 0
2312 2 4.9694651339942497e-01 6.5382575661460862e+01 6.3511649332720651e+01 9.9140459504198944e+01 0 0 0
1949 4 1.2710924415469399e-01 5.9617290064663599e+01 5.7579622824877006e+01 9.1745548354035819e+01 0 0 0
6430 2 -1.7351690164965153e-01 6.9087201369459081e+01 6.8610316375713921e+01 9.9438785260372342e+01 0 0 0
1950 1 -5.2042289855346191e-01 6.1731186264618898e+01 5.7142900502122806e+01 9.2405943125961755e+01 0 0 0
6448 5 -7.8186728905266373e-02 6.5618357843033749e+01 6.4832353410289372e+01 9.4736581333325674e+01 0 0 0
6249 4 1.7904563203981924e-01 7.2134731024919532e+01 6.1781268989838445e+01 9.9279793562490411e+01 0 0 0
1792 1 -5.6670965869938594e-01 6.5460834382224462e+01 6.2278754653240483e+01 8.9374892737264361e+01 0 0 0
1789 2 3.5377646534203078e-01 6.5454208087934205e+01 6.3173622071433861e+01 8.8470058713307424e+01 0 0 0
6141 4 1.4432550601161676e-01 7.0979890681123393e+01 6.6110573724875337e+01 9.3813809981408255e+01 0 0 0
1810 4 1.4370914295024698e-01 7.1783651358630266e+01 6.2753163561193169e+01 9.0018653255069552e+01 0 0 0
1798 4 1.6430311404942904e-01 6.7866894987943382e+01 6.3996084503764457e+01 8.8382969534799358e+01 0 0 0
751 2 5.2304786409052180e-03 6.6108156136342771e+01 5.7672419750092978e+01 9.7929826454595243e+01 0 0 0
2149 4 1.5432529676404794e-01 6.5477528472891180e+01 6.4537112921289889e+01 9.0548346683473852e+01 0 0 0
6251 2 7.4700142416540327e-02 7.0371120324059447e+01 6.2238010507394499e+01 9.8075213842808509e+01 0 0 0
6248 1 -5.1000734578394602e-01 7.0447700414363652e+01 6.3296661807950258e+01 9.7049675436631205e+01 0 0 0
6260 4 2.7525191168432184e-01 6.7124699222432042e+01 6.1277907829566395e+01 9.9059066364879641e+01 0 0 0
6137 2 -1.5960453784632586e-01 7.1649116187513016e+01 6.6592922170142202e+01 9.3058068644939553e+01 0 0 0
6446 4 1.4727503190989541e-01 6.9088850725633378e+01 6.6570890280022198e+01 9.5343350987081905e+01 0 0 0
6445 2 -1.9141635128364501e-01 6.7601744798691897e+01 6.5101586850492112e+01 9.4644384986559032e+01 0 0 0
6443 4 1.7531124310651117e-01 6.6187117298720906e+01 6.7316203726447654e+01 9.5046414412472501e+01 0 0 0
6449 4 1.4494626782116865e-01 6.8138480699709447e+01 6.4196442790706996e+01 9.4812832046594622e+01 0 0 0
6447 4 1.6811766275547735e-01 6.8006995736843194e+01 6.6007281956870273e+01 9.6684823999760354e+01 0 0 0
6139 4 1.2553054218154869e-01 7.1286879634807022e+01 6.4976090580912739e+01 9.1609294985031951e+01 0 0 0
754 2 1.2769996320985920e-03 6.6493133433697167e+01 5.7686784077536721e+01 9.6403779237431166e+01 0 0 0
3470 1 -6.0170186586648244e-01 6.8866420473120286e+01 6.8542130703711422e+01 9.2240884801792461e+01 0 0 0
6432 4 1.8684778590540868e-01 6.9941175893219096e+01 6.7113115757748602e+01 9.8203853175859606e+01 0 0 0