LAMMPS data file via write_data, version 23 Jun 2022, timestep = 1500000

8160 atoms
5 atom types

22.082874859362505 147.31712514058688 xlo xhi
63.38811507083251 86.61188492914016 ylo yhi
83.58175997240578 116.41824002760895 zlo zhi

Masses

1 15.999
2 12.011
3 14.007
4 1.008
5 32.06

Atoms # charge/kk

1558 2 -1.6786533772648085e-01 2.6381648556860704e+01 6.3724238158145887e+01 8.3967295345374509e+01 0 0 0
3262 4 1.0203075199984045e-01 2.4658860802299728e+01 6.6309394199658726e+01 8.7543476183577098e+01 0 0 0
3258 2 -1.8854974611227790e-01 2.4835739307126595e+01 6.7272784550966648e+01 8.8050417539871560e+01 0 0 0
3263 4 1.1523449449305058e-01 2.4727369971375946e+01 6.6974943918412635e+01 8.9139903686624905e+01 0 0 0
3260 4 1.1079832265890843e-01 2.3282829313535881e+01 6.7836581353356394e+01 8.6618421491696111e+01 0 0 0
3257 2 -1.7717523482443623e-01 2.3661575622744234e+01 6.8177375351829824e+01 8.7647051290458691e+01 0 0 0
3259 4 1.3687899188993366e-01 2.3990623469309568e+01 6.9244959218583560e+01 8.7328363648053539e+01 0 0 0
3444 4 1.1071004453468715e-01 2.3598268713540527e+01 6.8914286182051057e+01 9.2718030977295825e+01 0 0 0
3106 5 -1.1037064665082759e-01 2.6551128150936279e+01 7.1466412655272563e+01 8.6453155824561591e+01 0 0 0
3103 5 -8.9977239900740094e-02 2.4794738335653324e+01 7.1438435756280626e+01 8.4950522332416767e+01 0 0 0
3440 2 -1.8289917958407181e-01 2.3325633738730964e+01 7.0016490516694589e+01 9.2775305981849428e+01 0 0 0
3445 4 1.3159651661055682e-01 2.3033724012013057e+01 7.0285810747505707e+01 9.1731082229618195e+01 0 0 0
3446 5 -1.0117589433187502e-01 2.6508083024690357e+01 7.1336896577734848e+01 9.1909004153422757e+01 0 0 0
3107 2 -1.7803371156807057e-01 2.7974986796157317e+01 7.1652446760252772e+01 8.5019153856078631e+01 0 0 0
3110 4 9.8558549578326562e-02 2.8443111570592933e+01 7.2687107419833694e+01 8.4999458660681626e+01 0 0 0
3109 4 1.3389182240126984e-01 2.7791870465108353e+01 7.1487555824173256e+01 8.3937253336252212e+01 0 0 0
3261 2 -1.8440370974630318e-01 2.6259909529028043e+01 6.7766171715548978e+01 8.7887579223614338e+01 0 0 0
3265 4 1.6730151250325240e-01 2.6487805430690056e+01 6.7959475510499161e+01 8.6792366876196368e+01 0 0 0
3100 2 -1.7493854624608227e-01 2.3470389971597140e+01 7.2185126451235789e+01 8.6212384500210689e+01 0 0 0
3105 4 1.2617076594295232e-01 2.3102400922249846e+01 7.1398459241410393e+01 8.6935003169233440e+01 0 0 0
3266 4 1.3505047117041361e-01 2.6347061134934467e+01 6.8808075692584183e+01 8.8363711202980937e+01 0 0 0
3447 2 -1.9366666856880696e-01 2.8188524030611532e+01 7.2009511590039153e+01 9.3079077833835328e+01 0 0 0
3595 4 1.3652506668170308e-01 2.3999585594405662e+01 7.2388400737178884e+01 9.0237889468071387e+01 0 0 0
1733 4 1.0410640975330653e-01 2.2827302130133088e+01 6.5019629797977188e+01 8.9096580226318011e+01 0 0 0
3587 2 -1.6982218065459967e-01 2.3000710599825748e+01 7.4308389313566380e+01 9.0647259282570971e+01 0 0 0
3443 5 -1.0117772263546515e-01 2.4800199230292090e+01 7.1061924495480554e+01 9.3823613053996795e+01 0 0 0
3112 4 1.8054164106555054e-01 2.9140044158540956e+01 6.9772629764744551e+01 8.4919586573760242e+01 0 0 0
2075 4 1.0829486949965103e-01 2.7974402226823006e+01 6.6829777285547848e+01 9.1923775004618662e+01 0 0 0
3108 2 -1.5591288640051165e-01 2.9165635755793744e+01 7.0743727598977472e+01 8.5491479337568563e+01 0 0 0
1557 2 -1.8067656833077730e-01 2.5106315987017716e+01 6.4112570047582949e+01 8.4795054495866083e+01 0 0 0
1561 2 -1.9823026234143312e-01 2.7680688772687699e+01 6.4417414389554068e+01 8.4576887997219075e+01 0 0 0
3593 5 -9.9297658072424702e-02 2.4920296478413253e+01 7.3256834576007918e+01 9.2590400470022374e+01 0 0 0
3448 2 -1.6605144580789860e-01 2.9248452306657235e+01 7.2776603571765591e+01 9.2267420325517961e+01 0 0 0
3113 4 1.4089188943184344e-01 2.8932429693195616e+01 7.0537052576632078e+01 8.6580990874368709e+01 0 0 0
3269 4 1.1564943957587825e-01 2.7331955818329256e+01 6.6653745190484273e+01 8.9542238776060216e+01 0 0 0
3264 2 -1.9712236476875200e-01 2.7320669831244928e+01 6.6693496767795310e+01 8.8434117113018715e+01 0 0 0
3590 2 -1.6687070819366592e-01 2.3589858607866553e+01 7.2948754882444092e+01 9.1090820049956065e+01 0 0 0
3268 4 9.4831882341895435e-02 2.7033324572474900e+01 6.5634619438992999e+01 8.8136178410581294e+01 0 0 0
2071 2 -1.8987918589220038e-01 2.7537406026299564e+01 6.7212647096692137e+01 9.2926885552033752e+01 0 0 0
3267 2 -1.8274945361939110e-01 2.8691236425656427e+01 6.7024403992523347e+01 8.7853899177567101e+01 0 0 0
3275 4 1.2104749016685343e-01 2.8733010943739568e+01 6.9286752299311019e+01 8.8177349718759288e+01 0 0 0
2074 2 -1.8826579761829768e-01 2.8519504730904718e+01 6.8318024021076923e+01 9.3505932392207853e+01 0 0 0
2076 4 1.0937887542632520e-01 2.6617978545989175e+01 6.7688617521336383e+01 9.2499300571423575e+01 0 0 0
2079 4 1.3051212483385261e-01 2.8474680203822480e+01 6.9202630636563015e+01 9.2771786121963913e+01 0 0 0
3452 4 1.3506356754800800e-01 2.8916571950582863e+01 7.3894865865927017e+01 9.2158590524038104e+01 0 0 0
3453 4 1.4461741553289764e-01 2.9308466203374081e+01 7.2434568681964123e+01 9.1185125032784626e+01 0 0 0
2068 2 -1.8110255418091903e-01 2.7257579868108522e+01 6.6064870052728907e+01 9.3895303415885763e+01 0 0 0
2072 4 1.0785249251448319e-01 2.6989756274516640e+01 6.5089571207182544e+01 9.3290576738964987e+01 0 0 0
1565 4 1.3820852527025870e-01 2.7629025457361681e+01 6.5525546439420779e+01 8.4291245732952120e+01 0 0 0
1560 4 1.1263595244455450e-01 2.5098915335752860e+01 6.5068418232696970e+01 8.5430618508845370e+01 0 0 0
2948 1 -5.5047610726012908e-01 2.7034873282111828e+01 6.8627454150213438e+01 8.4284377255605364e+01 0 0 0
3102 4 1.2911657246929237e-01 2.2421253112399313e+01 7.3633861745237596e+01 8.4988872927691403e+01 0 0 0
3272 4 1.3192262707403105e-01 2.8507539286537845e+01 6.7061653419692917e+01 8.6779066569106362e+01 0 0 0
3270 2 -1.6732169809287023e-01 2.9342700556885312e+01 6.8318348225866146e+01 8.8311036148044778e+01 0 0 0
3104 4 1.6393503484317704e-01 2.3802146361730113e+01 7.2996433786323365e+01 8.6966202887311610e+01 0 0 0
3271 4 1.1850111836680105e-01 2.9317066750361782e+01 6.6114206003676927e+01 8.7957678245787562e+01 0 0 0
1564 2 -2.0914100537573824e-01 2.9109049318237485e+01 6.3825533552629196e+01 8.4193459859706820e+01 0 0 0
1937 4 1.1207482339696762e-01 2.2878194423730154e+01 6.4144712632706515e+01 9.2599717791361968e+01 0 0 0
3592 4 1.6135234131868828e-01 2.3060438305800265e+01 7.4453406984995794e+01 8.9521132307717011e+01 0 0 0
3594 4 1.5193277826802937e-01 2.2747926046282231e+01 7.2203878874915290e+01 9.1356147617854091e+01 0 0 0
1566 4 1.2682052579198161e-01 2.7680065896518361e+01 6.4309112410002001e+01 8.5698533230698601e+01 0 0 0
2095 4 1.3258184901913264e-01 3.6545050004751488e+01 6.3603883260339835e+01 9.4521104772597312e+01 0 0 0
3256 5 -1.3863308661504659e-01 2.2547519638813622e+01 6.8162455332800647e+01 8.9258741674082231e+01 0 0 0
260 4 1.9438079447433440e-01 2.7230597553030304e+01 7.4581691464305521e+01 8.5791562953075328e+01 0 -1 0
1938 4 1.1019838333500027e-01 2.3394011774872585e+01 6.4064455201086830e+01 9.4289106238273845e+01 0 0 0
2952 4 1.2758550605850241e-01 2.9745309143593577e+01 6.8484116925302530e+01 8.3636915221307007e+01 0 0 0
265 4 1.2826847153845597e-01 2.9730098032605234e+01 7.4212511693501440e+01 8.7547866353042835e+01 0 -1 0
261 2 -2.6243627533296293e-01 2.9796021407572667e+01 7.4934199546590094e+01 8.6674745104319030e+01 0 -1 0
2078 4 1.2162657150072689e-01 2.8166381844518277e+01 6.8824317790801757e+01 9.4438059424537300e+01 0 0 0
1728 2 -1.8265046448579964e-01 2.2245292208382306e+01 6.4050900638285782e+01 8.8950084810821778e+01 0 0 0
3449 4 1.3774951143822320e-01 2.8037402747065219e+01 7.2615041428266011e+01 9.4006769696023497e+01 0 0 0
1739 4 1.0671008232517534e-01 2.5052611001130124e+01 6.3596453356320247e+01 8.8333597709594827e+01 0 0 0
264 4 1.0578204417624602e-01 2.9752714979936187e+01 7.4317680729701109e+01 8.5779079594798915e+01 0 -1 0
3450 4 1.1665569150343885e-01 2.8821879361947360e+01 7.1172227118118883e+01 9.3409517944453867e+01 0 0 0
1732 4 1.3005276924866255e-01 2.2355191722885106e+01 6.3542111844552679e+01 8.9984757271328434e+01 0 0 0
2943 4 1.7526527263425301e-01 2.4386162918984510e+01 6.8886727757438962e+01 8.3657219065589246e+01 0 0 0
3097 2 -1.7830397056473726e-01 2.2306241018014145e+01 7.2544486028815214e+01 8.5339399505970775e+01 0 0 0
1933 2 -2.6219582930795837e-01 2.3056753944010222e+01 6.3450702651320555e+01 9.3441860139047591e+01 0 0 0
1582 4 1.4482194341517421e-01 3.7597483280128955e+01 6.3523686807345157e+01 8.6168729158169043e+01 0 0 0
279 4 1.5099388211487549e-01 3.7347190507383161e+01 7.4835326877556128e+01 8.7488525667404957e+01 0 -1 0
3101 4 1.5331923966782707e-01 2.2313630706342007e+01 7.2104044843641589e+01 8.4314820429805465e+01 0 0 0
1583 4 1.5682701956625339e-01 3.7653342673744362e+01 6.5236136904902551e+01 8.6437528419158355e+01 0 0 0
3274 4 1.7103456649630722e-01 3.0112329537635365e+01 6.8570344097147512e+01 8.7504097499047916e+01 0 0 0
3451 2 -2.6918110678394158e-01 3.0711797413018189e+01 7.2641570607839526e+01 9.2960833447402408e+01 0 0 0
2077 2 -1.9229855032182303e-01 3.0007500696203017e+01 6.7886651111633256e+01 9.3710308291406761e+01 0 0 0
1572 4 1.2887536316887713e-01 3.0185125461127804e+01 6.4688340921985258e+01 8.5927605502731126e+01 0 0 0
3462 4 1.2586802167318834e-01 3.4054728720404022e+01 7.4845490063221092e+01 9.1563146891288056e+01 0 0 0
3455 4 1.2782964932294111e-01 3.0684456856396046e+01 7.2556937454089734e+01 9.4093924753530942e+01 0 0 0
277 4 1.3252405582692903e-01 3.5607524883113200e+01 7.4499221562399654e+01 8.9543873014867003e+01 0 -1 0
3114 2 4.6276642376262334e-01 3.1769821293424940e+01 7.0517113791209667e+01 8.5669420165259055e+01 0 0 0
3460 2 -1.7608181438102105e-01 3.5466223070512115e+01 7.3855558209528198e+01 9.3006511513311963e+01 0 0 0
3118 1 -6.0244281553854107e-01 3.1466159218346299e+01 6.9321430178725848e+01 8.5927222298269299e+01 0 0 0
1567 2 -2.0287606240301526e-01 3.0327145598038719e+01 6.4606643875158937e+01 8.4858339505727656e+01 0 0 0
3280 4 1.5683322482836928e-01 3.2394881547246300e+01 7.1294501364017705e+01 8.8875674222785094e+01 0 0 0
2084 4 1.1697430537561815e-01 3.0432551400631759e+01 6.9949348599527340e+01 9.3839523279043149e+01 0 0 0
3123 2 -2.4311963517188021e-01 3.6641277265888576e+01 7.0528652829945329e+01 8.6559032594672260e+01 0 0 0
266 2 3.1699790121546487e-02 3.2426630458045146e+01 7.4890391322211144e+01 8.6569103253115713e+01 0 -1 0
3281 2 -2.5450775857319874e-01 3.4561160656768003e+01 7.1033728804794393e+01 8.9945288004517977e+01 0 0 0
2096 4 1.6046458609645076e-01 3.7546659956397626e+01 6.4956293648390130e+01 9.4083296037710426e+01 0 0 0
2087 2 -1.6339326170581212e-01 3.5296328050064105e+01 6.6186950137394035e+01 9.4492513857531705e+01 0 0 0
1571 4 1.3292958246308351e-01 3.0441412841563107e+01 6.5648031023544590e+01 8.4506407366342685e+01 0 0 0
3276 5 -1.1217643444167957e-01 3.0577706044028403e+01 7.0203529313264980e+01 9.0479386031149758e+01 0 0 0
2260 4 1.7931684292115005e-01 3.5924487487670085e+01 6.9101138193143385e+01 9.4319612116623617e+01 0 0 0
3273 5 -1.1891234065721290e-01 2.9991198728168566e+01 6.8016454263237719e+01 9.0133115354415310e+01 0 0 0
274 1 -5.5418414539650507e-01 3.4813616021728400e+01 7.3500566303512826e+01 8.7024960484010677e+01 0 -1 0
3457 1 -5.4473648084696336e-01 3.3018593188250058e+01 7.3348720575836808e+01 9.2881758621160216e+01 0 0 0
3130 1 -5.4432747966244432e-01 3.7662340803047805e+01 6.9344927331267925e+01 8.4982761610294858e+01 0 0 0
3464 4 1.8520004738246451e-01 3.5598837384119818e+01 7.3681983648449076e+01 9.4148370324706988e+01 0 0 0
3278 2 -1.5586464010964043e-01 3.3494918940640588e+01 6.9834729860455113e+01 8.9944645815921319e+01 0 0 0
3287 1 -5.8095458760429197e-01 3.6902551485807393e+01 7.1089631394299360e+01 9.0188614037969771e+01 0 0 0
1576 5 -1.0705001440499802e-01 3.4914184900535027e+01 6.3789391552203938e+01 8.5539967798866599e+01 0 0 0
3124 4 1.5628635772339428e-01 3.5744559692435345e+01 7.0976158858612948e+01 8.4542237020428061e+01 0 0 0
3288 1 -5.4170146857127810e-01 3.5526826949963827e+01 6.9746480264440052e+01 9.1700839562827909e+01 0 0 0
271 4 1.4484934201520233e-01 3.2173927125533510e+01 7.3794483478938659e+01 8.6499330999533115e+01 0 -1 0
2082 4 1.4951260741623607e-01 3.0501144701718992e+01 6.7505081213954071e+01 9.2772931549131386e+01 0 0 0
3459 2 2.2005992218879621e-02 3.4045863592989164e+01 7.4392957791799176e+01 9.2619199895876065e+01 0 0 0
3121 4 1.3246763973057624e-01 3.4226003020168569e+01 6.9488553782858759e+01 8.5268877214796149e+01 0 0 0
2083 5 -7.0073599935157174e-02 3.2907637137172280e+01 6.8780688642877266e+01 9.3920897879606429e+01 0 0 0
3458 1 -5.9489131453758981e-01 3.1282098206581992e+01 7.4721520998404714e+01 9.1855689048881743e+01 0 0 0
272 2 4.9816136405007644e-01 3.4487810078128483e+01 7.4591862998942844e+01 8.7605164245420823e+01 0 -1 0
3119 2 5.3019807674195986e-02 3.4104593567466445e+01 7.0445016401866852e+01 8.5871267921175360e+01 0 0 0
3116 4 1.2134251530081494e-01 3.0587566811075984e+01 7.2316414932941029e+01 8.6179487100922998e+01 0 0 0
3284 2 4.9666811256802440e-01 3.5731472528808574e+01 7.0534768191603831e+01 9.0745174154380024e+01 0 0 0
3454 2 4.8986263503093591e-01 3.1691426453841913e+01 7.3735437729072444e+01 9.2541685035374030e+01 0 0 0
1577 2 -1.8322226566244690e-01 3.6539351918959305e+01 6.4570016880112775e+01 8.4592214822818633e+01 0 0 0
1580 4 1.9822018923946647e-01 3.6462106867671238e+01 6.5545446359344851e+01 8.4040252194088879e+01 0 0 0
3463 2 -2.6084962547140539e-01 3.6762394912159600e+01 7.4693090034773547e+01 9.2617690783106013e+01 0 0 0
3111 2 -2.5751457446336806e-01 3.0536699545082662e+01 7.1494257516648503e+01 8.5395916729006558e+01 0 0 0
3115 4 1.2804729505862700e-01 3.0694547319329395e+01 7.2072842976615775e+01 8.4467423473866560e+01 0 0 0
3279 4 1.6616850175523784e-01 3.2149284200301501e+01 6.9601377270619054e+01 8.8266943059699628e+01 0 0 0
3286 4 1.6969922229256551e-01 3.4040639241814013e+01 7.1944814770528467e+01 9.0394949074209919e+01 0 0 0
3128 4 1.3651581570597071e-01 3.6299616959751134e+01 6.9628069038903362e+01 8.7215017432678593e+01 0 0 0
1573 5 -1.0351146625150082e-01 3.3191930688703437e+01 6.5181901952621004e+01 8.4636669515807768e+01 0 0 0
3467 4 1.1220088826396182e-01 3.6904417418015832e+01 7.4779752188956436e+01 9.1530129110079912e+01 0 0 0
3282 4 1.4023765186071560e-01 3.4030302770521459e+01 6.8895945621897283e+01 8.9613524911245477e+01 0 0 0
2090 4 1.4461823859487855e-01 3.5736752259056594e+01 6.7284629042185045e+01 9.4278368944788255e+01 0 0 0
1570 2 -1.7385825392585244e-01 3.1751542248100087e+01 6.3916226851341435e+01 8.4678495374538485e+01 0 0 0
2089 4 1.2433356178339909e-01 3.5577310693828991e+01 6.5517538589013341e+01 9.3553337147249493e+01 0 0 0
3283 4 1.9402427456600135e-01 3.3211761850130344e+01 6.9522950229149117e+01 9.0994772806934520e+01 0 0 0
3277 2 -1.8702078005982961e-01 3.2198686238235346e+01 7.0237024653715721e+01 8.9172964644204313e+01 0 0 0
3125 4 2.1961731303658466e-01 3.5528526700259498e+01 7.2233847977136080e+01 8.5737619576517346e+01 0 0 0
3285 4 1.7264351820826168e-01 3.4922898943753076e+01 7.1352105581684100e+01 8.8920308109606864e+01 0 0 0
3117 1 -5.3459565662757613e-01 3.2974525503059979e+01 7.1303269366304576e+01 8.5621423726674095e+01 0 0 0
3456 4 1.6477774182664021e-01 3.1202540206867425e+01 7.1696075126992341e+01 9.2821595000881800e+01 0 0 0
3120 2 -1.7745859567451649e-01 3.5525688075975808e+01 7.1090086713656873e+01 8.5676556751695472e+01 0 0 0
3122 4 1.0685104936433629e-01 3.4168118054412894e+01 6.9880886159108925e+01 8.6886957446158860e+01 0 0 0
3465 4 1.7578130611280596e-01 3.5491807630690012e+01 7.2782669570467476e+01 9.2667998586920064e+01 0 0 0
3127 4 1.5197151453711943e-01 3.6738069440555520e+01 7.1255325355761030e+01 8.7403862363340153e+01 0 0 0
611 4 1.0665305311339678e-01 2.8268665537930904e+01 7.4926575651570843e+01 9.0606033831856266e+01 0 -1 0
1736 4 1.3094586656147048e-01 2.2849366856412871e+01 6.3416796127774504e+01 8.6958711559222380e+01 0 0 0
253 4 1.1580081369214172e-01 2.4986537313416164e+01 7.4947660638869564e+01 8.5204676656746472e+01 0 -1 0
1559 4 1.2011213897439182e-01 2.4971068236598423e+01 6.3390842936752151e+01 8.5658628089231058e+01 0 0 0
2081 4 1.2135725293293510e-01 2.9969682699979199e+01 6.7033533128299368e+01 9.4385681305405001e+01 0 0 0
2073 4 1.3455663477325328e-01 2.8154795166805567e+01 6.5775040810353104e+01 9.4410554919588350e+01 0 0 0
2080 2 -1.8145422137658282e-01 3.0845757952566835e+01 6.8984581463317738e+01 9.4296294984222101e+01 0 0 0
1579 4 1.5451964613705180e-01 3.6853835501664456e+01 6.3930593445765858e+01 8.3736941090143702e+01 0 0 0
2060 2 -1.9851068361549859e-01 2.3416139559874974e+01 6.7177074098491360e+01 9.6798454070198915e+01 0 0 0
2233 5 -1.0049807273311429e-01 2.4301053149512111e+01 6.6319330743475646e+01 1.0009721546412939e+02 0 0 0
2065 4 1.3524731614711566e-01 2.3584795456218579e+01 6.8185698674797536e+01 9.7199825579934441e+01 0 0 0
2063 5 -1.0179045425386635e-01 2.4399510115810671e+01 6.5568329496026678e+01 9.7697377235730229e+01 0 0 0
3787 2 -1.7999640230504024e-01 2.4750802356809920e+01 7.1662003251057484e+01 1.0176784653826121e+02 0 0 0
3786 5 -9.2251048582542849e-02 2.3143988961501670e+01 7.0857141991867650e+01 1.0282225217625199e+02 0 0 0
3788 2 -1.6387185360209738e-01 2.6060145813867610e+01 7.1114004416483297e+01 1.0235760599004830e+02 0 0 0
3789 4 1.6063378624789298e-01 2.4787363390577845e+01 7.1293997286432955e+01 1.0074398041345631e+02 0 0 0
3791 2 -2.5278526074199476e-01 2.7040326946123571e+01 7.0360738694472943e+01 1.0147720877082402e+02 0 0 0
3796 4 1.4450874743030462e-01 2.6429258763741291e+01 6.9774021215398335e+01 1.0070853938025179e+02 0 0 0
2237 2 -1.5335067157955476e-01 2.7345294938753398e+01 6.5197735969646715e+01 1.0150740969789591e+02 0 0 0
2066 5 -1.0820614571152276e-01 2.6773104506517779e+01 6.6195451612392787e+01 9.6881253728089277e+01 0 0 0
3798 1 -5.6235978258082875e-01 2.7499259188759581e+01 7.1998385368659328e+01 9.9814737467854073e+01 0 0 0
3794 2 4.8707656682118111e-01 2.8032375121821563e+01 7.1237556516175871e+01 1.0068536315504431e+02 0 0 0
3795 4 1.3710741112220820e-01 2.7532619956487270e+01 6.9532812442570162e+01 1.0211209526783102e+02 0 0 0
2238 2 -1.7587350496283824e-01 2.7929224681751005e+01 6.6050034748296724e+01 1.0041591230287467e+02 0 0 0
3792 4 1.2850113715843825e-01 2.5794902839264097e+01 7.0402908563268710e+01 1.0324763985402744e+02 0 0 0
3790 4 1.4421536361034579e-01 2.4855821173829874e+01 7.2771841190842707e+01 1.0158054674903921e+02 0 0 0
2242 4 1.3548630799008862e-01 2.7278127170253097e+01 6.6970137654511916e+01 1.0018554994460168e+02 0 0 0
3793 4 1.1941006817961233e-01 2.6552237575550038e+01 7.1882741292926809e+01 1.0301400324963954e+02 0 0 0
2240 4 1.9130289044881402e-01 2.7129459597508948e+01 6.5900853777570717e+01 1.0243196694076120e+02 0 0 0
2243 4 1.5724685312194103e-01 2.7906223457918042e+01 6.5386511780750041e+01 9.9416791340285030e+01 0 0 0
2239 4 1.6447073948418059e-01 2.8194039343253490e+01 6.4534700167166989e+01 1.0198989019904255e+02 0 0 0
2249 4 1.2818526054258156e-01 2.9112446032325458e+01 6.7642753905825174e+01 9.8854371071234453e+01 0 0 0
2236 5 -8.0590442906327331e-02 2.5621161424338034e+01 6.4188073560966785e+01 1.0090373402263448e+02 0 0 0
2241 2 -2.0065479815142917e-01 2.9334276264034457e+01 6.6501228693447359e+01 1.0065865163132806e+02 0 0 0
3797 1 -5.8406615557913999e-01 2.9383299185473508e+01 7.0927993561158317e+01 1.0091073087453449e+02 0 0 0
3926 1 -5.7819821460181586e-01 2.7888634881480879e+01 6.5789213717664964e+01 1.0423071582951103e+02 0 0 0
3922 4 1.2168707108981679e-01 2.5359594863521430e+01 6.6458884120522370e+01 1.0371176464176138e+02 0 0 0
2064 4 1.0073591493096040e-01 2.3621846361400269e+01 6.7346024781491678e+01 9.5723586715528612e+01 0 0 0
3924 2 4.9692140533570928e-01 2.7616236932022737e+01 6.6579328172008474e+01 1.0519859790213052e+02 0 0 0
727 2 -1.7843306102480819e-01 2.9691532411787865e+01 6.4198324654368719e+01 9.7750688985221331e+01 0 0 0
3916 4 1.2747583477635405e-01 2.2910961646901704e+01 6.5656833702947196e+01 1.0501965950272411e+02 0 0 0
2230 2 -1.8891955865187596e-01 2.2296407757575437e+01 6.5562063431619052e+01 1.0048409871387099e+02 0 0 0
2248 4 1.5147693428507236e-01 2.9804091894761644e+01 6.8648703661636802e+01 9.9992195460027958e+01 0 0 0
905 4 1.5741955388218007e-01 2.9595453787906646e+01 7.4686579655918678e+01 9.8284019304655502e+01 0 -1 0
2245 4 1.3609998562095779e-01 2.9370670004162527e+01 6.6979206784764472e+01 1.0165524468561767e+02 0 0 0
3923 4 1.2244742654388940e-01 2.4840009146873623e+01 6.5560992848101066e+01 1.0501303917501626e+02 0 0 0
726 5 -8.2067287972599365e-02 2.7851140606616575e+01 6.3872643431013159e+01 9.6789631049189666e+01 0 0 0
3918 2 3.9972441350571243e-02 2.5245092481740745e+01 6.6611412830387280e+01 1.0484321210493142e+02 0 0 0
900 4 1.6249638093700067e-01 2.7089925769040129e+01 7.4603590467742976e+01 9.8677048965410449e+01 0 -1 0
899 4 1.7160133190264509e-01 2.6892830109180430e+01 7.4175995584801868e+01 1.0022515367623184e+02 0 -1 0
2067 2 -1.9270971169096776e-01 2.6144451028706229e+01 6.6447549713144909e+01 9.4857113726226956e+01 0 0 0
2244 2 -2.0126462817049270e-01 2.9856549580896377e+01 6.7568804940072582e+01 9.9629381999531731e+01 0 0 0
730 4 1.7214746304123035e-01 2.9802379233816154e+01 6.4037840536377232e+01 9.8857006249708746e+01 0 0 0
3920 4 1.6319434156832494e-01 2.3719615930320181e+01 6.8257751105695760e+01 1.0414833424510762e+02 0 0 0
3915 2 -1.8187413147609635e-01 2.3980477553795357e+01 6.7560017711998910e+01 1.0500296331775802e+02 0 0 0
2234 4 1.5100415833553602e-01 2.2264339493412376e+01 6.4935092081504379e+01 1.0140610374661442e+02 0 0 0
5268 4 1.3360686388957710e-01 3.6684764377466827e+01 7.4808318680644973e+01 1.0468171184683914e+02 0 -1 0
3442 4 1.1307594698529899e-01 2.2309072518974588e+01 6.9744887462019278e+01 9.4716316662863989e+01 0 0 0
3614 4 1.4105487164088007e-01 2.5862042429899827e+01 7.4834776141120216e+01 9.4644066343579894e+01 0 0 0
902 4 1.3289759466164677e-01 2.8921154449829864e+01 7.4918368589561084e+01 1.0109891247539890e+02 0 -1 0
2069 4 1.2338736985497439e-01 2.5778504241047951e+01 6.7478398908876656e+01 9.4702020602346835e+01 0 0 0
2246 4 1.5678775572920561e-01 3.0008383355522000e+01 6.5605832566725823e+01 1.0075862650834135e+02 0 0 0
741 4 1.2549677561423747e-01 3.4751642492113078e+01 6.3825206580410018e+01 1.0059296336020532e+02 0 0 0
721 4 1.5091041457640667e-01 2.3531008558016815e+01 6.3690114977812954e+01 9.9134099213988733e+01 0 0 0
3992 2 2.2699927954326579e-03 3.4236533075918679e+01 6.9785911031318733e+01 1.0264501018397281e+02 0 0 0
918 4 1.7087767627281869e-01 3.4874340997722662e+01 7.4891404508178354e+01 9.9026906040695906e+01 0 -1 0
743 2 -2.3515779925912667e-01 3.7193824938242933e+01 6.3746440998486527e+01 1.0056865515417094e+02 0 0 0
731 2 -2.3915887655058662e-01 3.2116426094633027e+01 6.3742555800452060e+01 9.7305240677005600e+01 0 0 0
3799 2 3.6002804345314013e-02 3.0343336293989729e+01 7.1853641282075316e+01 1.0026345684730234e+02 0 0 0
729 4 1.2600734131932292e-01 3.0080641762196251e+01 6.5258899556479022e+01 9.7549086873575575e+01 0 0 0
737 1 -5.4410495158452499e-01 3.4092215473039985e+01 6.4026275604972383e+01 9.8487434348045184e+01 0 0 0
4017 4 1.8071005956757544e-01 3.6405326294266153e+01 6.9600253192642015e+01 1.0523163364609763e+02 0 0 0
3809 3 -4.9591870620479150e-01 3.4709607822418420e+01 6.9596304500394567e+01 9.9647634079316603e+01 0 0 0
2252 4 1.7067144376237459e-01 3.1509496358571543e+01 6.6165356016052854e+01 9.8990312209574441e+01 0 0 0
740 2 -1.7444965178924632e-01 3.6408562604445855e+01 6.4096773024406346e+01 9.9312513839002932e+01 0 0 0
736 4 1.4841031839852636e-01 3.2260806842083923e+01 6.4634433611358560e+01 9.6585481814919191e+01 0 0 0
6454 4 1.0069854690166470e-01 3.7499338889571931e+01 6.4526126920183060e+01 1.0321999604973962e+02 0 0 0
3806 2 3.6967245535322402e-01 3.4062493275147567e+01 7.0870860428943502e+01 9.9263079111832653e+01 0 0 0
734 2 4.8784013647855995e-01 3.2689784828500756e+01 6.4099196913289845e+01 9.8711873528051413e+01 0 0 0
2251 4 1.2924788614701077e-01 3.2061614996533606e+01 6.7724225358776010e+01 9.9623269368356745e+01 0 0 0
3812 4 2.1994245104132884e-01 3.4308989852126800e+01 6.8846948264640616e+01 9.9024402565408892e+01 0 0 0
3993 4 1.0762434183699761e-01 3.4836666492361587e+01 7.2210261113079582e+01 1.0469076531109491e+02 0 0 0
3803 2 -2.6662293567332934e-01 3.2608957733289721e+01 7.1079405986625915e+01 9.9099563787048027e+01 0 0 0
2258 2 -1.6051140519133930e-01 3.6523916871205806e+01 7.0815116743321781e+01 9.5426299487232541e+01 0 0 0
2254 4 1.0992694504204832e-01 3.0721763764287420e+01 6.7294738916387260e+01 9.6873425723737014e+01 0 0 0
2259 4 1.6089059314396559e-01 3.6443543506868608e+01 6.8767967354316099e+01 9.6035399979436377e+01 0 0 0
3994 2 -2.0777209947994858e-02 3.4729284153815932e+01 7.1295741900959783e+01 1.0270241024544877e+02 0 0 0
914 4 1.9971602146161091e-01 3.4078632161581702e+01 7.4342045424282787e+01 1.0202034700714394e+02 0 -1 0
3983 4 1.4934579266101292e-01 3.1048693139654723e+01 7.0747802847661347e+01 1.0397983353048832e+02 0 0 0
910 2 -1.7139339066300935e-01 3.3828324074255420e+01 7.4366214343810469e+01 1.0092290719346370e+02 0 -1 0
3810 1 -5.8563922003620306e-01 3.4682430483421548e+01 7.1938623780759841e+01 9.9010911053579889e+01 0 0 0
3931 4 1.4305509523214721e-01 3.0381461982937836e+01 6.6425780475243855e+01 1.0439746960415674e+02 0 0 0
2091 2 -2.6407596541189571e-01 3.7145381546752695e+01 6.4450265268818612e+01 9.4995632895128864e+01 0 0 0
3997 4 1.6614196823411770e-01 3.4530779017069413e+01 7.1890824267453084e+01 1.0178121847975258e+02 0 0 0
3808 4 1.6755945213735485e-01 3.2415688445970112e+01 7.1969280602759824e+01 9.8458778825387554e+01 0 0 0
3981 2 -3.2766128469844683e-02 3.1736613831339440e+01 7.1188412102556313e+01 1.0472207589585911e+02 0 0 0
3999 2 4.0285027928970607e-01 3.7087151485287592e+01 7.2557330208588724e+01 1.0270777358658312e+02 0 0 0
3995 4 9.8409080201278962e-02 3.5066805018270735e+01 6.9106545762267402e+01 1.0235672327072726e+02 0 0 0
3987 4 1.7186208958331919e-01 3.1657629749892862e+01 7.3267064221521011e+01 1.0521304616184989e+02 0 0 0
2263 4 1.6133730162926024e-01 3.6024203524389655e+01 7.1515444083726294e+01 9.4719684484004702e+01 0 0 0
3988 1 -5.0349556770675885e-01 3.3074373554574770e+01 7.2977175723331300e+01 1.0356177028081238e+02 0 0 0
915 4 1.8166202607088200e-01 3.3444192039225229e+01 7.3333153376454163e+01 1.0050398558845924e+02 0 -1 0
3985 2 7.7816331430410279e-02 3.3221982666840027e+01 7.0678606867002770e+01 1.0456397012932250e+02 0 0 0
2092 4 1.8394607442565206e-01 3.5386067990030121e+01 6.4933751491584530e+01 9.6298814126468727e+01 0 0 0
917 4 2.1781844382567145e-01 3.5750080019600794e+01 7.3776464351356992e+01 9.9979252128422132e+01 0 -1 0
4022 4 1.3670844008384078e-01 3.3797823015282866e+01 6.7269992680118037e+01 1.0453309127555113e+02 0 0 0
2085 4 1.1439340447193967e-01 3.0646715287371222e+01 6.9086606105267933e+01 9.5382631844048092e+01 0 0 0
3800 2 -1.8649893164190193e-01 3.1739026746269943e+01 7.1233395913156784e+01 1.0040277886469730e+02 0 0 0
747 4 1.1019282829772456e-01 3.7290442839055913e+01 6.4634478180300931e+01 1.0131060626667667e+02 0 0 0
3991 2 8.0926517040112902e-02 3.4012213282945581e+01 7.1902020518957386e+01 1.0394485257766098e+02 0 0 0
3998 3 -4.3942236190652323e-01 3.6248361343089059e+01 7.1368208297064669e+01 1.0266671712698455e+02 0 0 0
3984 2 -2.1899345706202643e-03 3.1834481531923725e+01 7.2687981165634625e+01 1.0428271199705114e+02 0 0 0
3802 4 1.3024315838221681e-01 3.0133754048390955e+01 7.2092371702451516e+01 9.9187020603800917e+01 0 0 0
3820 1 -5.0984185703085649e-01 3.7195345956733824e+01 6.7157015313483271e+01 9.9100999793791942e+01 0 0 0
3990 1 -5.2983475674651848e-01 3.3287287041939798e+01 6.9490062927331337e+01 1.0368654406920240e+02 0 0 0
3996 4 1.3072782345655232e-01 3.3792245702285157e+01 6.9701668050523892e+01 1.0158789886507770e+02 0 0 0
4000 4 2.6695780179206297e-01 3.6652125470595607e+01 7.0568960345934002e+01 1.0319915101219698e+02 0 0 0
3815 2 8.5556444387645952e-02 3.6786757550254137e+01 6.8194294661384049e+01 1.0003705136824166e+02 0 0 0
3811 2 4.6832301772807517e-03 3.6174892061661048e+01 6.9418683213346583e+01 9.9323465061852346e+01 0 0 0
2253 5 -1.0821472304817061e-01 3.3383656876682622e+01 6.7617004020856228e+01 9.7262864374197392e+01 0 0 0
2086 5 -1.1189977173321808e-01 3.3195577702715987e+01 6.6346780481177376e+01 9.5048037377571205e+01 0 0 0
745 4 2.1641195590755827e-01 3.6907481721044370e+01 6.4988080128318728e+01 9.8798468448588181e+01 0 0 0
4002 1 -5.5566760948022198e-01 3.7059326417328727e+01 7.3557711433869343e+01 1.0192623746965242e+02 0 0 0
2256 5 -9.6685120354566834e-02 3.3803631821040987e+01 6.9771272301556991e+01 9.6031277823236692e+01 0 0 0
4020 4 1.5944355167320898e-01 3.6565755470830481e+01 6.6682223492016661e+01 1.0454124922250986e+02 0 0 0
2255 4 1.0679737894960148e-01 3.0950368421488236e+01 6.8867843629070478e+01 9.7579125654801899e+01 0 0 0
3813 4 1.5390452590204950e-01 3.6225356535772093e+01 6.9278257669962500e+01 9.8204531452147691e+01 0 0 0
3819 4 9.8639518667165263e-02 3.6010326230517116e+01 6.8002501379059495e+01 1.0081296659024480e+02 0 0 0
2088 2 -1.7200909474457823e-01 3.6068556540439594e+01 6.5511237055504566e+01 9.5615788254524986e+01 0 0 0
2247 2 -1.8909625330094051e-01 3.1250818335495907e+01 6.7246305290901176e+01 9.9009724533544500e+01 0 0 0
3816 4 1.5733650039940372e-01 3.7151363603215991e+01 7.1222350940057126e+01 9.8679221243098482e+01 0 0 0
738 1 -5.7526919355396788e-01 3.1959980562928664e+01 6.4165144845840146e+01 9.9743990205363616e+01 0 0 0
2262 4 1.6102476119726056e-01 3.6275348758501430e+01 7.1337012607598410e+01 9.6381243836499635e+01 0 0 0