LAMMPS data file via write_data, version 23 Jun 2022, timestep = 500000

8928 atoms
4 atom types

71.29431321549774 103.90568678452166 xlo xhi
61.36738353179921 88.63261646823106 ylo yhi
37.693208550067965 162.30679144992348 zlo zhi

Masses

1 1.008
2 15.999
3 12.011
4 14.007

Atoms # charge/kk

4767 2 -3.9915731358513562e-01 7.4759324209378391e+01 6.5246993824962715e+01 5.2787815090888373e+01 2 0 0
3173 1 1.2732271506737988e-01 7.3496099138136913e+01 6.1844607210860168e+01 4.9614566057506678e+01 1 1 0
4771 3 2.9609084524486240e-02 7.6503192366274746e+01 6.6639973896288723e+01 5.2435170739954401e+01 2 0 0
4773 1 1.9574191504626726e-01 7.5523725073910967e+01 6.6844150587937477e+01 5.2000029188337052e+01 2 0 0
3179 1 1.5124491587410416e-01 7.7701528698185385e+01 6.2485654431005422e+01 4.7065927579277165e+01 1 1 0
4765 1 1.6672363697525702e-01 7.2635890766767432e+01 6.3806527642502026e+01 5.1882289528182376e+01 2 0 0
3176 2 -5.2886983241583851e-01 7.6363315990533906e+01 6.2202794930050928e+01 4.9340703327474188e+01 1 1 0
4772 3 -1.9310225311936766e-01 7.7737820087988453e+01 6.7636159644650007e+01 5.2174723462069316e+01 2 0 0
4770 4 -1.2282482176959447e-01 7.6419054627044815e+01 6.5729169408244985e+01 5.3107343869804637e+01 2 0 0
3174 3 4.8729499841278551e-01 7.5964291189769469e+01 6.1659052929174337e+01 4.8270159516093969e+01 1 1 0
265 2 -4.3468409078491804e-01 7.8384037117062306e+01 6.3713501325090867e+01 5.2355602959833682e+01 1 0 0
3175 3 -2.4028208874802087e-01 7.6976361558957166e+01 6.1651166953632163e+01 4.7094151662943446e+01 1 1 0
4775 1 1.2100091164032652e-01 7.7907327399322014e+01 6.7811015377533764e+01 5.1018440651693965e+01 2 0 0
4761 3 -1.9062232016870279e-01 7.2860672260454237e+01 6.3642313121711510e+01 5.2997036981400683e+01 2 0 0
363 3 -1.9886546294846050e-01 7.7358675497845141e+01 6.8929913831043564e+01 5.2954424789272835e+01 1 0 0
4766 1 1.5931794773128316e-01 7.2844371458251416e+01 6.2563764883967977e+01 5.3084644943731476e+01 2 0 0
264 1 1.5184635703856950e-01 7.8767682999137037e+01 6.2691912292184682e+01 5.0409933363634558e+01 1 0 0
261 3 1.4490005457229537e-02 7.9247465988310992e+01 6.3025157490966990e+01 5.1400282967563811e+01 1 0 0
4774 1 1.7785487245379666e-01 7.8715804097299369e+01 6.7163787660280974e+01 5.2463600398870327e+01 2 0 0
3178 1 1.5528609086979911e-01 7.6433831885381537e+01 6.1648155770942182e+01 4.6070568464213444e+01 1 1 0
258 3 -1.5186851951288089e-02 7.9859805069881261e+01 6.1709024205474755e+01 5.1912595901012160e+01 1 0 0
263 1 1.5188636537728953e-01 8.0032597734932452e+01 6.3665235485290466e+01 5.0898481837559054e+01 1 0 0
256 4 -4.0351151064095020e-01 8.1401754965534565e+01 6.1676820833100670e+01 5.2056766068494717e+01 1 0 0
366 1 1.3282552651666690e-01 7.8225054132437393e+01 6.9735779667165460e+01 5.2788005870766348e+01 1 0 0
365 1 1.2704204993292839e-01 7.6421859641916342e+01 6.9401143841442149e+01 5.2586525937968702e+01 1 0 0
4760 2 -4.9842719270708641e-01 7.1341079035736314e+01 6.6580247226490812e+01 5.3120193350046854e+01 2 0 0
259 1 2.8311999233735274e-01 8.1563719836582493e+01 6.1465968594569425e+01 5.3110923117071103e+01 1 0 0
262 3 1.0173802232429550e-01 7.9097435135056699e+01 6.1467408656720224e+01 5.3261862132825179e+01 1 0 0
161 1 8.9372412991022887e-02 7.7724610315695145e+01 6.3832396216087531e+01 6.0419867888275256e+01 1 0 0
171 1 1.8390133273645501e-01 7.7141350448028518e+01 6.5444896226492460e+01 5.6963626744735436e+01 1 0 0
163 2 -5.9002496706783281e-01 7.7090380142153421e+01 6.3265259652931420e+01 5.7415254822982511e+01 1 0 0
176 1 1.1133977555355724e-01 7.5716839916094216e+01 6.6644287324616414e+01 5.9266825642200416e+01 1 0 0
177 1 1.4189580959391507e-01 7.5976665621237771e+01 6.4928763504748574e+01 5.9114967103268349e+01 1 0 0
172 3 3.7360053576397628e-02 7.5163446818858091e+01 6.5737134051761160e+01 5.8887610213142288e+01 1 0 0
174 1 1.9087940118296889e-01 7.4068093857432473e+01 6.5802077862364570e+01 5.6885879161707308e+01 1 0 0
169 3 -2.0711841713814824e-01 7.5098143797719828e+01 6.6004040670825788e+01 5.7235408151393301e+01 1 0 0
157 3 4.7168798488251402e-02 7.7100908106203590e+01 6.1896593445764360e+01 5.8000128555362473e+01 1 0 0
167 3 -2.4801089633576259e-01 7.6119716451152073e+01 6.5161954958890107e+01 5.6572132861306777e+01 1 0 0
166 3 4.9599539554570804e-01 7.5913722986706233e+01 6.3614571768529800e+01 5.6742197544119776e+01 1 0 0
173 1 1.5177055851317942e-01 7.5240818697681007e+01 6.7092526024061343e+01 5.6998353710787683e+01 1 0 0
168 2 -5.8939775792749249e-01 7.4869800453282494e+01 6.2920692580054684e+01 5.6499432070786924e+01 1 0 0
175 2 -4.4338143181687478e-01 7.4033388619421700e+01 6.5346262656261658e+01 5.9535690077127413e+01 1 0 0
274 1 1.6426099888190474e-01 7.8349765638928559e+01 6.3721187586675242e+01 5.5557872512326746e+01 1 0 0
170 1 1.5924491119565459e-01 7.6196621774424031e+01 6.5572420965170124e+01 5.5497444652631536e+01 1 0 0
178 4 -1.7760258520544447e-01 7.3242960461932000e+01 6.6527202855260384e+01 6.0510277730183205e+01 1 0 0
147 1 1.6677242769421702e-01 7.3079772381135015e+01 6.1904243648953774e+01 5.9780495538813618e+01 1 0 0
270 1 1.4279670864843483e-01 7.7316021290160606e+01 6.2556475178848849e+01 5.3889341914494068e+01 1 0 0
179 3 4.9413138221838751e-02 7.2218841148595487e+01 6.6066565578700093e+01 6.0672159156033224e+01 1 0 0
3298 1 1.4693612978973544e-01 7.2702656082674807e+01 6.2406707271799220e+01 5.6007124204809635e+01 1 1 0
180 1 1.7500253731425686e-01 7.2053833777252649e+01 6.5087797487152216e+01 6.0041125949463520e+01 1 0 0
4754 2 -5.6965284835953223e-01 7.2167395532344003e+01 6.5907062624654571e+01 5.5318318395649712e+01 2 0 0
4769 1 1.5850537782466778e-01 7.4238289390030019e+01 6.4285120393765226e+01 5.4656516010135327e+01 2 0 0
4758 3 4.9739087057200626e-01 7.1746388616668014e+01 6.5730325647439514e+01 5.3978903898266516e+01 2 0 0
4750 1 1.9962314575716780e-01 7.1339309607314334e+01 6.6238420542319545e+01 5.7427443215033996e+01 2 0 0
4745 3 -2.3067324622155577e-01 7.1671608555270623e+01 6.7294227682991959e+01 5.7211345005838091e+01 2 0 0
4759 3 -2.3300518770476550e-01 7.1796893499544737e+01 6.4217452878232010e+01 5.3921659671557563e+01 2 0 0
353 1 1.3560145138245694e-01 7.7727745660178655e+01 6.7260107055254849e+01 6.0112064729617728e+01 1 0 0
159 1 1.6861813587233368e-01 7.8489114321544861e+01 6.2905620565228283e+01 5.9251666907796263e+01 1 0 0
268 3 7.8255179184042414e-02 7.8320501119423980e+01 6.2827181042937084e+01 5.3516067043648128e+01 1 0 0
4762 1 2.0415637715976034e-01 7.1928656574591585e+01 6.3858282568134101e+01 5.4991682121785573e+01 2 0 0
4748 3 2.5082127660885731e-02 7.2230610246974976e+01 6.7278700286806128e+01 5.5797959212878119e+01 2 0 0
151 2 -5.8749877978833898e-01 7.5610460295159768e+01 6.1617678375631790e+01 6.0514756905113387e+01 1 0 0
277 1 2.8851840664731382e-01 7.8760653550363642e+01 6.5167399540481924e+01 5.3681126829430468e+01 1 0 0
144 3 7.0191491389289869e-03 7.2813810622343198e+01 6.1532521646578466e+01 6.0787553735998742e+01 1 0 0
4815 2 -5.9685277444838436e-01 8.0891803127305394e+01 6.1437355524154505e+01 5.9152383499926344e+01 1 0 0
165 1 1.9215779451004589e-01 7.6090621182681176e+01 6.1501768580990806e+01 5.8329709853483436e+01 1 0 0
153 3 1.2488809729440707e-01 7.7071164551339663e+01 6.1767073409214859e+01 6.0547729547459276e+01 1 0 0
283 1 1.3587969934544883e-01 7.9210470254104067e+01 6.6664836457850370e+01 5.8155991256976016e+01 1 0 0
154 3 -2.4057033794231450e-01 7.7945425415345099e+01 6.1940351899408505e+01 5.9263199922005839e+01 1 0 0
271 3 8.8907448650636395e-03 7.9092316598667409e+01 6.3445310351918458e+01 5.4704341840854831e+01 1 0 0
364 1 1.6745315506349262e-01 7.6402216259060594e+01 6.7874101243197472e+01 5.4939945563372014e+01 1 0 0
4818 1 1.9141830486961575e-01 8.3231629954627678e+01 6.1642221205227038e+01 6.1381454262603604e+01 1 0 0
4756 1 1.0428301675623396e-01 7.3132919680713741e+01 6.7857684271555200e+01 5.5766119265647788e+01 2 0 0
4749 1 1.6194011093623289e-01 7.2461694317470062e+01 6.7381340739190776e+01 5.7993059996025238e+01 2 0 0
4768 1 1.4574267602258018e-01 7.5082965607863301e+01 6.3352759324110920e+01 5.3635380313739418e+01 2 0 0
4764 3 6.6302637829824235e-02 7.4315904430425050e+01 6.4205283026220684e+01 5.3507276401896505e+01 2 0 0
291 1 1.0864845271485254e-01 7.9326136965663451e+01 6.6611220858856811e+01 6.0177795064288617e+01 1 0 0
272 1 1.4179669229347619e-01 8.0165599537958514e+01 6.2248167371794814e+01 5.6321644577630735e+01 1 0 0
4755 1 1.8116655538917714e-01 7.1742651908096249e+01 6.8069877017847858e+01 5.5160994158377697e+01 2 0 0
4813 3 4.6276234770935465e-01 8.2140215892066067e+01 6.1391407703175993e+01 5.9417906935934511e+01 1 0 0
292 1 1.0817156923241779e-01 7.9483209003200045e+01 6.5176896760980569e+01 6.0942928383416515e+01 1 0 0
279 2 -5.1481254414489752e-01 7.9243637290655187e+01 6.6983860274102966e+01 5.5200876995748274e+01 1 0 0
275 4 -3.8829556601512549e-01 7.9562018474166607e+01 6.4845020168230036e+01 5.4302181025678259e+01 1 0 0
276 3 5.7274018048590880e-01 7.9716614270689462e+01 6.5814372981149518e+01 5.5387499475785241e+01 1 0 0
4599 3 8.9869780342732603e-02 8.7058574423289826e+01 6.2354354982721397e+01 6.0256550875347564e+01 1 0 0
285 1 1.5444588292598763e-01 8.0162071578208170e+01 6.4239920995045537e+01 5.8898589651059510e+01 1 0 0
278 2 -5.6753920172766381e-01 8.0312402726187770e+01 6.5285508954210314e+01 5.6521585423444975e+01 1 0 0
280 3 8.6884320921598687e-02 8.0179062050826701e+01 6.6143300857963311e+01 5.7861250007506584e+01 1 0 0
284 3 3.0095293473621818e-02 8.0201717714934915e+01 6.5920197597799941e+01 6.0336019945852954e+01 1 0 0
269 3 1.9776213590249076e-02 8.0159821626816168e+01 6.2384246018397555e+01 5.5184861381592917e+01 1 0 0
281 3 -2.4456555261416146e-01 8.0606069229709121e+01 6.5276882790551724e+01 5.9018054125814793e+01 1 0 0
273 1 1.4676794173025465e-01 8.1134230111446030e+01 6.2877961696913005e+01 5.5427557566721958e+01 1 0 0
282 3 2.1221591405262027e-02 8.1428585809430217e+01 6.7077249691453545e+01 5.7753555641739091e+01 1 0 0
4817 1 1.6139196340549652e-01 8.3094148774275666e+01 6.3066827722394500e+01 6.0303587499062196e+01 1 0 0
286 1 1.6199847392145927e-01 8.1700861314094865e+01 6.5079116677378153e+01 5.9024058578304320e+01 1 0 0
4616 2 -6.0689289807429203e-01 8.5114323116812756e+01 6.7188267132188145e+01 5.8692126732326962e+01 1 0 0
4611 1 1.3453772651784413e-01 8.5147267983179958e+01 6.4733479945147295e+01 5.9237230953324101e+01 1 0 0
4607 1 1.3175150352768716e-01 8.5545495920014019e+01 6.2751144259926924e+01 5.8627889691205120e+01 1 0 0
4613 3 5.8881303155224074e-01 8.6343371087917873e+01 6.6942241519909231e+01 5.8494692748510943e+01 1 0 0
4608 3 -7.7706278750076371e-03 8.6186554321775816e+01 6.4574671571470105e+01 5.9571054007949542e+01 1 0 0
4612 4 -4.5268491014542966e-01 8.7008410314364227e+01 6.5719645691185292e+01 5.8995254177648157e+01 1 0 0
4605 3 7.6487004469409259e-02 8.6521645275243216e+01 6.3192513089271088e+01 5.8989530766412976e+01 1 0 0
4814 3 -2.2471238415496253e-01 8.2523876308585926e+01 6.2182063406792437e+01 6.0690270715484161e+01 1 0 0
289 1 1.6314064240214746e-01 8.2142681988543430e+01 6.6601315975373609e+01 5.6980977737701124e+01 1 0 0
288 1 1.6931728208270960e-01 8.2121313481493488e+01 6.6850061301604413e+01 5.8622960056481745e+01 1 0 0
1665 1 1.5624577526952965e-01 7.1747446852282081e+01 6.7884124774298897e+01 6.7187497716875583e+01 1 0 0
4820 1 1.5503745304808178e-01 8.0607357046321866e+01 6.3264245160364524e+01 6.0890472702867534e+01 1 0 0
4615 2 -5.7758748998695897e-01 8.7113821096441441e+01 6.7716736354488688e+01 5.7642632327702565e+01 1 0 0
302 1 1.8638719018638319e-01 8.3757198832991691e+01 6.6997385754468311e+01 6.0944002418666784e+01 1 0 0
4614 1 2.9483524178261439e-01 8.7403496053961220e+01 6.5284286621300055e+01 5.8131321130008523e+01 1 0 0
1631 1 1.6177533234638125e-01 7.2035809329367481e+01 7.0875069525650844e+01 5.6363005589196682e+01 1 0 0
1650 1 1.9650283161367685e-01 7.1545798108420811e+01 7.1373293163073242e+01 5.9600074267202992e+01 1 0 0
1626 2 -4.4961771815667417e-01 7.2561543957904121e+01 7.2737404085026895e+01 5.7503625356704312e+01 1 0 0
1629 3 7.0776658568834860e-02 7.2724293652911697e+01 7.1788297344350838e+01 5.6418062326609018e+01 1 0 0
1644 1 1.7101204204806073e-01 7.2405911813469260e+01 6.8737128870880341e+01 6.0537992770473558e+01 1 0 0
6262 1 2.0806933741139549e-01 7.2456632313795552e+01 7.4134279327922286e+01 6.0634126459639738e+01 2 0 0
350 3 -2.5465831244536663e-01 7.7577882645956834e+01 6.8372220562037526e+01 6.0358301100993351e+01 1 0 0
354 1 1.5550588842574345e-01 7.8610568665510868e+01 6.8746456633147673e+01 6.0255381013120100e+01 1 0 0
356 1 1.7315871098836377e-01 7.5709070742591479e+01 6.8542822073373429e+01 5.9151630435891441e+01 1 0 0
1635 1 1.3642539893574229e-01 7.3974627568149018e+01 6.9991274084055931e+01 5.6545933275785472e+01 1 0 0
358 2 -4.3894545230780124e-01 7.7137743283406692e+01 6.8405527505887292e+01 5.6865286900274924e+01 1 0 0
352 3 -2.0278311335200416e-01 7.6681660011015879e+01 6.9048251197718699e+01 5.9328010969052485e+01 1 0 0
357 1 1.6522320737486157e-01 7.6380035393988251e+01 7.0057860537877588e+01 5.9806087307061887e+01 1 0 0
1518 3 5.1314189071325317e-02 7.6862697624054334e+01 7.4309805715468627e+01 5.9475721593311313e+01 1 0 0
359 1 1.4247090932058859e-01 7.8549883605389979e+01 6.9372985891067430e+01 5.8204513402148891e+01 1 0 0
355 3 3.7339185951248993e-02 7.7516522439276699e+01 6.9178983089781823e+01 5.7935622468906089e+01 1 0 0
360 1 1.6902493300465440e-01 7.7590873385553252e+01 7.0282946810351746e+01 5.7780597108034144e+01 1 0 0
361 4 -8.1138425673334055e-02 7.7728935644773472e+01 6.9115343123963356e+01 5.5395329028882237e+01 1 0 0
1636 4 -4.5314507623274547e-01 7.4903221631914022e+01 7.1433022444024033e+01 5.7732498363257811e+01 1 0 0
1638 1 2.6530506050405678e-01 7.4998808111029149e+01 7.2456601420134703e+01 5.7633781768037302e+01 1 0 0
1640 2 -6.0050223030709782e-01 7.4031103850508273e+01 7.2216480970661735e+01 5.9804242502776177e+01 1 0 0
1637 3 6.2899926376360327e-01 7.4156393642909109e+01 7.1264160392373412e+01 5.8971822037772270e+01 1 0 0
1632 3 -6.5482364719883727e-03 7.4099748126485622e+01 7.1126576376303859e+01 5.6451750147691428e+01 1 0 0
1639 2 -6.0051386325797895e-01 7.3544090231100142e+01 7.0021642983672535e+01 5.9133933806243029e+01 1 0 0
1634 1 1.3114648655153166e-01 7.5955165865548466e+01 7.1760928587603303e+01 5.5355466887018167e+01 1 0 0
1630 3 -4.3186961318465930e-03 7.4893144364169132e+01 7.1481355176094965e+01 5.5118524056170500e+01 1 0 0
1516 1 1.2336614519252193e-01 7.6071064507171116e+01 7.4603321048356634e+01 5.6197492219759155e+01 1 0 0
1641 3 1.2557465601510878e-01 7.2762673555054320e+01 6.9769928762201474e+01 6.0411474541399272e+01 1 0 0
1633 1 1.1120116142657885e-01 7.5328928090193060e+01 7.0503560399471652e+01 5.4700633353872853e+01 1 0 0
1628 2 -4.5750770564370402e-01 7.4031300741549941e+01 7.2296946193145615e+01 5.4309222858807551e+01 1 0 0
362 3 2.2782664709789180e-02 7.7144532618885677e+01 6.8667477284225370e+01 5.4518898595744311e+01 1 0 0
1623 3 8.1795212787840368e-02 7.2756655854179982e+01 7.2458370655581575e+01 5.4967509559006032e+01 1 0 0
1643 3 9.5968461310627674e-03 7.1499164369554208e+01 7.0683750374255268e+01 6.0459250733766702e+01 1 0 0
1619 3 -1.8628949101476375e-03 7.2593431139167507e+01 7.3970730109117554e+01 5.5391349364118945e+01 1 0 0
1519 3 -2.0826086186243173e-01 7.6886857483390642e+01 7.3372032366761175e+01 6.0797589730933652e+01 1 0 0
1622 3 -9.5718783677603194e-03 7.2426246992462040e+01 7.4035485943953091e+01 5.6926832962112542e+01 1 0 0
1521 3 -1.7479260567427213e-01 7.8345586743413236e+01 7.2937287464777086e+01 6.0882518084683788e+01 1 0 0
1526 1 1.7605002026411176e-01 7.8702325362744631e+01 7.2367607297188826e+01 5.9960517091815383e+01 1 0 0
1517 4 -1.2856895600188536e-01 7.7709027983740881e+01 7.4659786676397133e+01 5.8816746762851999e+01 1 0 0
1620 1 2.7780234869463538e-01 7.4469498622589043e+01 7.4466927469643508e+01 5.4591746783495054e+01 1 0 0
6263 1 1.8360765323268632e-01 7.4050726664807087e+01 7.4586249232163937e+01 6.0505575174465065e+01 2 0 0
6260 3 -1.9141140298445114e-01 7.3204806311805115e+01 7.4651815951509690e+01 6.1222850188520276e+01 2 0 0
1525 1 1.4138813307361700e-01 7.9052120105259249e+01 7.3770217439503796e+01 6.0976196676141953e+01 1 0 0
1625 1 1.3858529325067184e-01 7.3085921385017130e+01 7.4837031267731888e+01 5.7329522419698364e+01 1 0 0
1660 3 4.5065518911966224e-02 7.1657270669489463e+01 6.8881550401307777e+01 6.7706102125226224e+01 1 0 0
4639 2 -4.8155308345166631e-01 7.9239067945128170e+01 7.1909975358947321e+01 5.7682458538875338e+01 1 0 0
1649 1 1.7356575616047018e-01 7.1740603849218033e+01 7.1375251708101786e+01 6.1357986939624112e+01 1 0 0
1523 1 1.6836619531109367e-01 7.6126762423034990e+01 7.2523813641727273e+01 6.0783776460357309e+01 1 0 0
5978 2 -5.1321592480299183e-01 8.7282387327722375e+01 7.0638357410494578e+01 6.1413149139457140e+01 1 0 0
293 1 3.5575098444635495e-01 8.0437228092502806e+01 6.8339138459657235e+01 5.6846702544091563e+01 1 0 0
4626 1 1.0909284644518551e-01 8.6980304758355459e+01 6.8542159316571002e+01 5.4955597109926579e+01 1 0 0
287 2 -6.0089945854361326e-01 8.1030931329784153e+01 6.8445996579182918e+01 5.7632659808893656e+01 1 0 0
4620 1 1.4318996397608860e-01 8.5404243089100646e+01 6.8808675637398196e+01 5.6492886447656844e+01 1 0 0
4619 3 -5.3924640547716729e-03 8.7373739562042729e+01 6.9214470797420702e+01 5.5762855372073155e+01 1 0 0
4617 3 1.1841418951271093e-01 8.6405338841910648e+01 6.8879430771671935e+01 5.6893166658051022e+01 1 0 0
4623 1 1.6408640529842086e-01 8.7215748147462818e+01 7.0234916814379687e+01 5.8569482250427797e+01 1 0 0
4618 3 -1.8964528048125917e-01 8.6373018886439993e+01 7.0145791749144124e+01 5.7824930131883406e+01 1 0 0
4622 1 2.2860757416170058e-01 8.6478624893331954e+01 7.1108649876596019e+01 5.7314081828816100e+01 1 0 0
4635 1 1.6533217262261632e-01 8.1189359610817760e+01 7.2166630734824892e+01 5.9918836530503064e+01 1 0 0
4631 3 -2.5265610265294230e-01 8.2076852587177299e+01 7.2464931263389445e+01 5.9346532127757165e+01 1 0 0
4628 1 2.0386963079828815e-01 8.4508645023379444e+01 6.9086821803490977e+01 5.8440321441482148e+01 1 0 0
4638 1 1.4968874658862100e-01 8.2488672631768253e+01 7.2818603536965568e+01 5.7243528207498755e+01 1 0 0
4633 3 -2.0917280431232291e-01 8.1606475070171442e+01 7.2802735321123976e+01 5.7978401419408456e+01 1 0 0
4641 1 1.3829851072978050e-01 8.0773826915007874e+01 7.1365780691887153e+01 5.6419676855896633e+01 1 0 0
4636 3 5.6138034251246603e-02 8.0487689574194533e+01 7.1628245582086350e+01 5.7474361647469294e+01 1 0 0
4640 1 2.0170894694681782e-01 8.0802708059757549e+01 7.0694016553662237e+01 5.8068264491216361e+01 1 0 0
4627 2 -5.6642160655698737e-01 8.4273867768435068e+01 7.1252842919630453e+01 5.8589847366700404e+01 1 0 0
4630 3 4.8817879059266778e-01 8.3044136990366184e+01 7.1288667174940684e+01 5.9286888295292300e+01 1 0 0
4621 3 4.1145880576829004e-02 8.5044651402828009e+01 7.0064172688977621e+01 5.8715228046772353e+01 1 0 0
4632 2 -5.6951601046821609e-01 8.2455404974102137e+01 7.0443089082794458e+01 6.0049908740531919e+01 1 0 0
4629 1 1.3462197612494209e-01 8.5372949362188407e+01 6.9733537761212702e+01 5.9728779420049378e+01 1 0 0
4637 1 1.3819189560419604e-01 8.1216047708884958e+01 7.3818492001198521e+01 5.8042546458803983e+01 1 0 0
4634 1 1.1269355862850028e-01 8.2566077402298887e+01 7.3334840176044509e+01 5.9887483062875702e+01 1 0 0
5979 1 1.1966342222799364e-01 8.6416228846102243e+01 7.2035359795201032e+01 6.0053547644043284e+01 1 0 0
5975 3 4.0216806162274583e-02 8.7114252888288704e+01 7.1862020081387016e+01 6.0963805756047130e+01 1 0 0
4624 2 -6.0939374911481536e-01 8.7508914331528914e+01 7.0665594324167387e+01 5.5609456687708636e+01 1 0 0
155 3 -2.1419453768580243e-02 7.7448005155910536e+01 6.3101731007110736e+01 6.1280005203778217e+01 1 0 0
162 1 1.4886470204370886e-01 7.6505179465962456e+01 6.3655104266483249e+01 6.1311087870673724e+01 1 0 0
1617 4 -4.6444856487164954e-01 7.3622911088671174e+01 7.4998992113641421e+01 5.4895495173010119e+01 1 0 0
145 1 1.6858742548048231e-01 7.3875773340757391e+01 6.3282797638340263e+01 6.1727910593668263e+01 1 0 0
346 2 -5.6827869528600994e-01 7.7044629254669459e+01 6.7290050881767968e+01 6.2369827495254590e+01 1 0 0
160 2 -6.5558576246209288e-01 7.8228979123114996e+01 6.2871037879994425e+01 6.2511671655443280e+01 1 0 0
142 3 3.0006703268302761e-02 7.3161269399579112e+01 6.2442365695979916e+01 6.2005577576712668e+01 1 0 0
146 1 2.1506309272751334e-01 7.4039072181802311e+01 6.1934739184901467e+01 6.2525438340429645e+01 1 0 0
330 1 1.4236015343867933e-01 7.1992792755801005e+01 6.6526068879485621e+01 6.8386958334205673e+01 1 0 0
341 1 1.7409790850286327e-01 7.5213975305923640e+01 6.5978442336285781e+01 6.2352143536179135e+01 1 0 0
331 4 -4.2897862681911120e-01 7.2988622091812331e+01 6.5468627898456731e+01 6.6819255883306894e+01 1 0 0
46 1 1.5349999229908015e-01 7.8812441894057784e+01 6.5694207180421799e+01 6.3985305316965452e+01 1 0 0
339 1 1.4469825448285459e-01 7.3557513640507182e+01 6.5957748455995159e+01 6.3902969130822321e+01 1 0 0
19 2 -5.5457091510081735e-01 7.4509161910918650e+01 6.2633460683364049e+01 6.7792110952659002e+01 1 0 0
367 1 3.5966751681754389e-01 7.5268407927724951e+01 6.2466122082324951e+01 6.4438113312205473e+01 1 0 0
338 3 -1.6948575946786219e-02 7.4388158662647754e+01 6.4149359253880647e+01 6.4728709603569470e+01 1 0 0
335 2 -5.4826277610463781e-01 7.4776503862181954e+01 6.6218498551893006e+01 6.8130945420651727e+01 1 0 0
343 2 -6.6827583195688234e-01 7.5208728327363659e+01 6.3273755572992627e+01 6.3875390090016005e+01 1 0 0
336 3 9.0340116962227629e-02 7.4530469165376658e+01 6.5668294952824994e+01 6.4456288728085099e+01 1 0 0
337 3 -1.8320267532604667e-01 7.5606437036779909e+01 6.5875277292922547e+01 6.3396711583958492e+01 1 0 0
340 3 2.7320973232826482e-02 7.6314152612635596e+01 6.7188577187323645e+01 6.3691323220171732e+01 1 0 0
342 1 1.9461948757056702e-01 7.6350166451160305e+01 6.4999070645565425e+01 6.3364909654115714e+01 1 0 0
17 3 4.7791365158796173e-01 7.5706844455467689e+01 6.2377372503524136e+01 6.7462375310915235e+01 1 0 0
348 1 1.4159722752006651e-01 7.6858076659071287e+01 6.7040225622873763e+01 6.4671944574893729e+01 1 0 0
21 1 1.8486431841380058e-01 7.7656864501495264e+01 6.3126556734609125e+01 6.6767027703758245e+01 1 0 0
18 3 -2.2069366949763847e-01 7.6928195279103747e+01 6.3304222867292516e+01 6.7620978083944181e+01 1 0 0
22 1 2.1533760677893019e-01 7.6696347650054889e+01 6.4428261252641008e+01 6.7591699239854293e+01 1 0 0
334 2 -5.6933103507854299e-01 7.4982674481312486e+01 6.6384238519774740e+01 6.5774367722095164e+01 1 0 0
332 3 5.7133687470639138e-01 7.4289546692432722e+01 6.6122911343207235e+01 6.6962820969719132e+01 1 0 0
344 1 1.9233006267155414e-01 7.4577986934225493e+01 6.4109071322097918e+01 6.5834320646436780e+01 1 0 0
345 1 1.5467604274890523e-01 7.3293750706939548e+01 6.3946181551435956e+01 6.4811221978036642e+01 1 0 0
181 1 3.3474739063922465e-01 7.7560304247224551e+01 6.3070284289693753e+01 6.3174257016127584e+01 1 0 0
333 1 3.2152737010709381e-01 7.2484283113100915e+01 6.5977145352288133e+01 6.6043274295385658e+01 1 0 0
347 1 1.4477081392494834e-01 7.5590607456669602e+01 6.8002455361897461e+01 6.4021137828356785e+01 1 0 0
327 3 1.7613125724168063e-02 7.2087825018694858e+01 6.5458122344442387e+01 6.8025630513911921e+01 1 0 0
140 2 -5.2329485099047446e-01 7.1929509904421508e+01 6.2680880310955033e+01 6.2726876424841571e+01 1 0 0
4835 1 1.7541276398433653e-01 7.1345202652430004e+01 6.7686093821297078e+01 6.1981476904411316e+01 2 0 0
1656 2 -6.0806116479404571e-01 7.2309238212906635e+01 6.7525472892121627e+01 6.5015950370835824e+01 1 0 0
315 1 3.4857053513868125e-01 7.2562224845908943e+01 6.2361131011685636e+01 6.7934031228159313e+01 1 0 0
40 1 1.3776315923059967e-01 7.8715384530783965e+01 6.7380919142324487e+01 6.6224525767268631e+01 1 0 0
312 4 -4.0497103781619903e-01 7.1897553513849942e+01 6.1759145637880415e+01 6.7354216078819292e+01 1 0 0
41 1 1.7627617401361426e-01 7.9511933405146237e+01 6.8101155321742837e+01 6.4852825606181270e+01 1 0 0
1520 1 1.8675413014945097e-01 7.5876128896116938e+01 7.4869547961988815e+01 5.9198815409996214e+01 1 0 0
1652 1 1.2468800038678654e-01 7.3455577462019974e+01 6.8226979778199905e+01 6.2536237689855930e+01 1 0 0
1621 1 1.7736727783160802e-01 7.1642854812939916e+01 7.4419507799287288e+01 5.4912250240577841e+01 1 0 0
4833 1 1.7890548044341370e-01 7.1301889587664775e+01 6.5344847548650677e+01 6.3459233477618994e+01 2 0 0
4606 3 2.2312842893238111e-02 8.6301677649140785e+01 6.4436044815368632e+01 6.1129313594067611e+01 1 0 0
36 3 -1.7930007490638278e-01 7.9717862077590311e+01 6.7576402412739014e+01 6.5821282803456654e+01 1 0 0
42 3 4.1784906827270055e-02 7.9512418988112216e+01 6.5286791843899465e+01 6.4817050491806953e+01 1 0 0
4656 1 1.9565980148030718e-01 8.7096269538433347e+01 6.1725244987668347e+01 6.2817718876143793e+01 1 0 0
45 4 -1.5547370137730609e-01 7.9425813905535549e+01 6.4159768758016881e+01 6.4930301893604081e+01 1 0 0
370 1 1.3093082294957187e-01 8.5503413132522837e+01 6.6212620877193388e+01 6.8685094137772964e+01 1 0 0
4821 1 1.4431948191705543e-01 8.0607981635423158e+01 6.1670361366926699e+01 6.1829242006552683e+01 1 0 0
51 1 1.3768292277843405e-01 8.0266535333955446e+01 6.1918203968052417e+01 6.5302401767594901e+01 1 0 0
49 3 -2.0543979735049359e-01 8.2224663212337546e+01 6.1762332796568494e+01 6.6284170312447415e+01 1 0 0
30 3 3.5024569082553539e-02 7.9601460297207225e+01 6.7122340517527860e+01 6.8724081082672214e+01 1 0 0
290 2 -5.5905011765581913e-01 8.1378363588144566e+01 6.6375966555661222e+01 6.1096712252441073e+01 1 0 0
4816 3 -1.7037480441857958e-01 8.1272479071547210e+01 6.2618448167230703e+01 6.1556024116053905e+01 1 0 0
4609 1 1.2944695955002777e-01 8.5308491228100095e+01 6.4791066612365142e+01 6.1587651361772537e+01 1 0 0
4604 2 -5.2372166557195576e-01 8.6831795133774918e+01 6.3138553349273792e+01 6.1462457814922132e+01 1 0 0
299 1 1.6978753534470473e-01 8.2853416924787183e+01 6.6782959740996361e+01 6.3435252008261614e+01 1 0 0
43 1 1.4350273692590865e-01 8.1439518377333357e+01 6.6508912337211569e+01 6.4915760009859284e+01 1 0 0
294 3 4.8337183071820233e-01 8.1099395749292512e+01 6.7178048955210969e+01 6.2223813938980818e+01 1 0 0
4610 1 1.3262783063381278e-01 8.6686520588264045e+01 6.5398136321908680e+01 6.1561750643173262e+01 1 0 0
39 3 -1.5886870523151014e-01 8.0519308030450532e+01 6.6246335587417519e+01 6.5526217367955169e+01 1 0 0
47 2 -4.4927124331309115e-01 8.0652418565916221e+01 6.3767907140089441e+01 6.6084036116850058e+01 1 0 0
48 3 3.7373056780758730e-02 8.0732034167095279e+01 6.2414000482388182e+01 6.6219130807520685e+01 1 0 0
4823 1 1.5760387460818123e-01 8.0990880590403663e+01 6.3218955693563991e+01 6.3638332943517568e+01 1 0 0
4824 1 1.5272510359688710e-01 8.1310085081516888e+01 6.4512593769770191e+01 6.2778801282173333e+01 1 0 0
4819 3 4.5557666550372744e-02 8.1737474417335136e+01 6.3459475891418734e+01 6.2791373665923373e+01 1 0 0
4822 2 -4.4259577930851113e-01 8.3091019767413613e+01 6.3423212476893070e+01 6.3013264921082836e+01 1 0 0
44 1 1.9719352024231082e-01 8.0901401005724907e+01 6.5705488446921990e+01 6.6444206295138684e+01 1 0 0
484 1 3.2499317771794584e-01 8.2237033865759116e+01 6.5025882817203026e+01 6.7269166232870205e+01 1 0 0
53 1 1.7523187808200821e-01 8.2897846292000565e+01 6.2568299728926156e+01 6.6639583167861161e+01 1 0 0
4825 4 -1.2131475426210821e-01 8.3620160731239224e+01 6.4049563336664875e+01 6.4567716095604652e+01 1 0 0
478 2 -6.3292966741121193e-01 8.3121508205964588e+01 6.5045833621134847e+01 6.7687536763705623e+01 1 0 0
4828 1 1.8362800093557716e-01 8.5026766220912066e+01 6.3267872483354751e+01 6.3672203737856265e+01 1 0 0
4829 1 1.5743465843287460e-01 8.5360434555925920e+01 6.4526582916581518e+01 6.6571231277300413e+01 1 0 0
477 1 1.7089874072952121e-01 8.4197489785624526e+01 6.2163494636108972e+01 6.8344679304040994e+01 1 0 0
4826 3 1.6448126308436797e-02 8.4731896454068618e+01 6.3801796516973617e+01 6.4573330667224539e+01 1 0 0
309 1 1.6325314448054051e-01 8.5307359522137034e+01 6.6609973776412772e+01 6.5196281376303702e+01 1 0 0
306 4 -1.4409176724963726e-01 8.6279042533899485e+01 6.6735351165169348e+01 6.3589180870695898e+01 1 0 0
4827 3 -2.1686001535942118e-01 8.5859015158420277e+01 6.4046330044506334e+01 6.5678625401029805e+01 1 0 0
307 3 3.3102868401007804e-02 8.6164854936782930e+01 6.6236254978015111e+01 6.4608657885979795e+01 1 0 0
4830 1 1.8632793990241109e-01 8.6278151859314718e+01 6.3070666627208837e+01 6.6054633991349633e+01 1 0 0
308 3 -2.0600746013194224e-01 8.6965209778452916e+01 6.4979385046492055e+01 6.5076166387244541e+01 1 0 0
127 3 -2.1324517550701746e-01 8.5208283071163962e+01 6.7258620237289634e+01 6.8405101357964298e+01 1 0 0
295 3 -2.0022882268331996e-01 8.2491357961619968e+01 6.7617601497061273e+01 6.2750265522092128e+01 1 0 0
4643 3 5.2008250209846500e-02 8.7535369923765842e+01 6.7610509161827167e+01 6.7490849557832419e+01 1 0 0
305 1 1.3213651377866817e-01 8.5695075612621963e+01 6.8200395903309257e+01 6.1445532960243938e+01 1 0 0
1624 1 1.3445309141468176e-01 7.1444649020924317e+01 7.4590323599259776e+01 5.7147530058593325e+01 1 0 0
303 2 -4.3789558682421098e-01 8.5091059110680021e+01 6.7969787142187457e+01 6.3516928384370701e+01 1 0 0
296 2 -5.6846009812296128e-01 8.0121418178900996e+01 6.7697442686728351e+01 6.2846923387682935e+01 1 0 0
479 1 1.3589401040018717e-01 8.2251328540389409e+01 6.3141755883883398e+01 6.8512177195956355e+01 1 0 0
369 1 1.5855955751106829e-01 8.4745847065568555e+01 6.7289596800461169e+01 6.7410538753913599e+01 1 0 0
473 3 -3.6345823526106935e-02 8.2706926208359462e+01 6.4146441152620000e+01 6.8784345206434992e+01 1 0 0
35 1 1.7478865017365186e-01 8.1728432933833830e+01 6.7791444700540978e+01 6.8442613568593515e+01 1 0 0