LAMMPS data file via write_data, version 23 Jun 2022, timestep = 1000000

8928 atoms
4 atom types

71.06492390417037 104.13507609584903 xlo xhi
61.52089668250454 88.4791033175191 ylo yhi
48.943208550067965 151.05679144992348 zlo zhi

Masses

1 1.008
2 15.999
3 12.011
4 14.007

Atoms # charge/kk

7710 1 1.3422827243191857e-01 8.0122999498405392e+01 6.5294346954692813e+01 5.5156970160971987e+01 1 1 0
7708 3 7.2083159659089430e-02 8.0538374383870789e+01 6.4482896902381199e+01 5.4600923915225586e+01 1 1 0
7665 1 1.7552803473462159e-01 7.5184392400311722e+01 6.4492906520888681e+01 5.3051930210714204e+01 1 1 0
7711 3 6.2685206322643742e-03 8.1568919339348710e+01 6.5158761169968827e+01 5.3656015338057337e+01 1 1 0
7705 2 -4.8166170748417719e-01 7.9698932005422733e+01 6.3503659114450983e+01 5.3953016413872881e+01 1 1 0
7717 1 2.6742215118934520e-01 8.1153035968174322e+01 6.3806269182009444e+01 5.2207831989277864e+01 1 1 0
7701 3 -3.8551588823890988e-02 8.0097890415628797e+01 6.2146878830511248e+01 5.4363554804696840e+01 1 1 0
7660 3 -2.0321372891472336e-01 7.4990075792748030e+01 6.4005527305602214e+01 5.2023569941401668e+01 1 1 0
7663 3 -1.0356978560543038e-03 7.6177258923360299e+01 6.4213760082511399e+01 5.1029203145690012e+01 1 1 0
7666 4 -1.0019752522530637e-01 7.7145818273604434e+01 6.4757068668023351e+01 5.1234735774216553e+01 1 1 0
4807 2 -5.6005456132940579e-01 7.3118841204909714e+01 6.6227048602698460e+01 5.3990484030371768e+01 1 0 0
7664 1 1.6152458823198693e-01 7.4150817954261214e+01 6.4711996474874894e+01 5.1683682715338357e+01 1 1 0
7672 1 1.5680352548225643e-01 7.9805921005563064e+01 6.5042226838654926e+01 5.0663611649722021e+01 1 1 0
7667 1 1.6642714839891498e-01 7.6113878272616319e+01 6.3897908077895373e+01 4.9954480740997511e+01 1 1 0
7668 2 -4.1632199359692279e-01 7.7953267440548714e+01 6.4632683137644051e+01 4.9673634013034153e+01 1 1 0
7704 1 1.3656676357643302e-01 7.9323693470311539e+01 6.1560150480517187e+01 5.4858033816303063e+01 1 1 0
7669 3 3.8082857926194084e-02 7.9327821495383205e+01 6.4493909300537396e+01 4.9745620245593500e+01 1 1 0
7670 3 -1.9085688196136863e-01 7.9730079014176198e+01 6.2951359864807067e+01 4.9645996567412581e+01 1 1 0
4799 2 -5.8201566926999493e-01 7.2874877606752747e+01 6.3128664458952507e+01 5.4582804348700073e+01 1 0 0
7673 3 -2.1721472124637184e-01 7.9064274361879569e+01 6.2175136830267967e+01 5.0807030811464401e+01 1 1 0
7677 1 1.7692842317281546e-01 7.9787013390103098e+01 6.2244023872396781e+01 5.1747924673947800e+01 1 1 0
7714 1 1.5030187621348395e-01 8.1249534610173797e+01 6.6268051690502730e+01 5.3459483856984441e+01 1 1 0
7657 3 -1.7627126936999477e-01 7.4543136287814534e+01 6.2497253562620998e+01 5.2110030572721563e+01 1 1 0
4802 3 -1.0781278957395377e-02 7.1684910350569808e+01 6.5902655853423198e+01 5.3820880986725314e+01 1 0 0
7662 1 1.9542412893541297e-01 7.3481433146872234e+01 6.2440424700834321e+01 5.2491765933759787e+01 1 1 0
4808 1 1.6201741920015075e-01 7.1417329721206968e+01 6.5385142008452007e+01 5.2894859742035322e+01 1 0 0
7659 1 1.4658661528911326e-01 7.5615586733328641e+01 6.2155543664137120e+01 5.4000182999426023e+01 1 1 0
7658 1 1.5311961600334414e-01 7.6675774931753736e+01 6.2027947143570692e+01 5.2677103895665297e+01 1 1 0
7715 4 -4.3849078813422410e-01 8.1704242301739839e+01 6.4672132679802161e+01 5.2205741180210701e+01 1 1 0
7654 3 -1.7282250390232648e-01 7.5647082409594802e+01 6.1759931367161279e+01 5.2999215544798048e+01 1 1 0
7678 1 1.8876147080945899e-01 7.8097250562675569e+01 6.2629280952067283e+01 5.1083381290770745e+01 1 1 0
7590 1 2.1709894554590270e-01 7.3213038974369340e+01 6.2048584314045421e+01 4.9560106761859764e+01 1 1 0
4809 1 1.6859288247920526e-01 7.1068019826768207e+01 6.6787183845675742e+01 5.3556206609165500e+01 1 0 0
7661 1 1.5605948398418562e-01 7.4533296006353211e+01 6.2004671740763676e+01 5.1079199766496664e+01 1 1 0
4613 3 5.9525923629840694e-01 7.1078386746794834e+01 6.9657445943091730e+01 5.7612041555947073e+01 1 0 0
4831 1 3.7316237239787126e-01 7.3454091715531845e+01 6.5685122974157053e+01 5.4731276187375592e+01 1 0 0
7674 1 1.4773699101141308e-01 8.0820283632661614e+01 6.2672999609897992e+01 4.9659128599845722e+01 1 1 0
4624 2 -6.0384614916292856e-01 7.1155537943441502e+01 6.9622237614461767e+01 5.2812598448679012e+01 1 0 0
4626 1 1.8757162929506049e-01 7.2809705412354248e+01 6.9334480931078133e+01 5.4253219809641308e+01 1 0 0
4625 1 1.0760283494300131e-01 7.2572058482285826e+01 7.1040872458339294e+01 5.3841177588152114e+01 1 0 0
4619 3 7.7998271101266717e-04 7.1957349183037309e+01 7.0077715176392090e+01 5.3910667767133170e+01 1 0 0
4645 1 3.0975293147011673e-01 7.1654333264531815e+01 6.9909148459304106e+01 5.2020202282105558e+01 1 0 0
4622 1 1.5812388223469798e-01 7.1424669209004037e+01 7.2399067026065140e+01 5.4729533125245410e+01 1 0 0
4617 3 1.3095111847771698e-01 7.1117626087576483e+01 7.0259590304464254e+01 5.5249767958070059e+01 1 0 0
7604 1 1.8593771262604225e-01 7.1326652606449130e+01 6.1846781482222575e+01 5.3095540274892699e+01 1 1 0
4477 3 6.0673027081779585e-01 7.5718879969975788e+01 6.4819874926750884e+01 6.1687331050907282e+01 1 0 0
4537 3 6.0873117675680788e-01 7.9697476890552082e+01 6.1683816793279263e+01 5.9298646808722474e+01 1 0 0
7698 3 8.2218903345948364e-04 8.1276228607318359e+01 6.2385875899462725e+01 5.5401062947321329e+01 1 1 0
4604 2 -4.4834820880694493e-01 7.1929186212535853e+01 6.6463821601819205e+01 6.1275919976162314e+01 1 0 0
7702 3 9.0627434399798618e-02 8.1560093599243302e+01 6.3868781983942043e+01 5.5688984482911636e+01 1 1 0
4796 3 5.6377834522184556e-01 7.2566426011919319e+01 6.3415169484803769e+01 5.5778968117519959e+01 1 0 0
4605 3 8.4241781937102106e-02 7.2038229902514431e+01 6.6412759567152094e+01 5.8753001361597946e+01 1 0 0
7700 1 1.4181202743539231e-01 8.1005629200828679e+01 6.1813979209702573e+01 5.6361852849993220e+01 1 1 0
4560 1 2.8510391513497579e-01 8.0461137364811535e+01 6.6923677651748235e+01 5.6557733579621996e+01 1 0 0
4546 1 1.4438074696995548e-01 7.8623022113662245e+01 6.3939495835013084e+01 5.6801304902098508e+01 1 0 0
7706 1 1.5218871559829725e-01 8.1060789426604401e+01 6.4132001459611104e+01 5.6696410469398266e+01 1 1 0
4795 4 -4.3537290050930116e-01 7.2998034630286142e+01 6.2632114379255540e+01 5.6933359427065241e+01 1 0 0
4558 4 -4.2053275177992305e-01 8.1266329626229236e+01 6.6719687892363140e+01 5.7122530699412074e+01 1 0 0
4550 2 -4.9175844842997263e-01 8.0844190484323789e+01 6.4891650350653606e+01 6.0135376380746919e+01 1 0 0
4542 1 2.9373066367051742e-01 8.0758279726036335e+01 6.3346843003204029e+01 5.8767514571885023e+01 1 0 0
4554 3 1.3464406663152930e-02 8.0892603591559961e+01 6.6774106052020784e+01 5.8616323919782971e+01 1 0 0
4539 4 -4.7872729043449558e-01 7.9850444739748383e+01 6.2884006917298329e+01 5.8470581000563037e+01 1 0 0
4551 3 7.0188516158810485e-02 7.9365901499280227e+01 6.6427533780872920e+01 5.8823948866377449e+01 1 0 0
4545 3 7.5734830584636065e-02 7.9462658528097890e+01 6.5178469882084812e+01 5.9782140154715862e+01 1 0 0
4541 3 1.0510310722409034e-03 7.8898502024773535e+01 6.4049879748327925e+01 5.8811946759633926e+01 1 0 0
4548 2 -4.7222491969770042e-01 7.8899631065924922e+01 6.6060988231514685e+01 5.7475079750785625e+01 1 0 0
4549 1 1.6746879794695294e-01 7.8635005890774551e+01 6.5290037349383013e+01 6.0576409610770398e+01 1 0 0
4544 3 -1.5318451753780107e-03 7.8426161856061398e+01 6.4699566607705108e+01 5.7576909150443313e+01 1 0 0
4543 1 1.8000146380492882e-01 7.7983258119761473e+01 6.3581904245717432e+01 5.9315641872408499e+01 1 0 0
4594 2 -6.1070999838687878e-01 7.6511191817882192e+01 6.4786955656878931e+01 6.0721937948802918e+01 1 0 0
4547 1 1.4456332912841602e-01 7.7301227678926935e+01 6.4573072758302473e+01 5.7586392669533460e+01 1 0 0
4784 1 1.5188057460725118e-01 7.5011659890465793e+01 6.2655750684844058e+01 6.0205524763825714e+01 1 0 0
4600 1 1.4403168052299245e-01 7.4791155130964995e+01 6.5096036935762228e+01 5.8219235717909505e+01 1 0 0
4601 1 1.6617840857353336e-01 7.5348807159959136e+01 6.6274751207975882e+01 5.8987437421346748e+01 1 0 0
4593 4 -4.0825646473646365e-01 7.4499957693042603e+01 6.5592010270465863e+01 6.1430180837681405e+01 1 0 0
4597 1 1.3720922390709639e-01 7.3825585622565782e+01 6.4221755948365114e+01 6.0096961106332934e+01 1 0 0
4598 3 2.8189449437091472e-03 7.4320869087400922e+01 6.5928365834434501e+01 5.8816473593785936e+01 1 0 0
4553 1 1.3104656468538209e-01 7.8876944389854543e+01 6.7271077766701111e+01 5.9421931609313539e+01 1 0 0
4595 3 -3.8613463475149902e-03 7.3728039101080157e+01 6.5314622384934353e+01 6.0125462851419400e+01 1 0 0
4602 2 -4.5901973339819391e-01 7.3305730265187449e+01 6.6797945809580014e+01 5.8202127449067198e+01 1 0 0
4797 1 2.9418936153166775e-01 7.3607903517467562e+01 6.3286189618390353e+01 5.7438300848214041e+01 1 0 0
4599 3 7.0609998898442328e-02 7.2240501980423005e+01 6.5597854092290945e+01 6.0133908143747746e+01 1 0 0
4785 2 -5.0016643348554402e-01 7.5386292941381626e+01 6.2636396802474891e+01 5.7966859047162238e+01 1 0 0
4783 1 1.5951759796867190e-01 7.6612929886786191e+01 6.2438384242084169e+01 5.9857283719451267e+01 1 0 0
4781 3 2.7174827905650758e-02 7.5636968969501311e+01 6.2214445596044534e+01 5.9343026720005014e+01 1 0 0
4557 1 1.6771965473373407e-01 8.1087265803275670e+01 6.7863441448799122e+01 5.8871707525418984e+01 1 0 0
4777 2 -5.5018332381198765e-01 7.2957085409878530e+01 6.1579577905016279e+01 6.0038368434933496e+01 1 0 0
4603 1 1.0862331302289364e-01 7.1727812130630952e+01 6.4566730155510584e+01 5.9995577570357710e+01 1 0 0
4798 2 -5.3755453862160907e-01 7.1880714579558955e+01 6.4617902541045908e+01 5.6065592626532592e+01 1 0 0
6135 2 -6.1230252043352973e-01 7.7272420169494794e+01 7.2898536325599906e+01 5.8347525119575394e+01 1 0 0
4552 3 2.0189563598057739e-02 8.1735763037952367e+01 6.5889068780155853e+01 5.9551334145865852e+01 1 0 0
4608 3 -1.1665964024452665e-02 7.1274855964844562e+01 6.7655152692910860e+01 5.9283937260466004e+01 1 0 0
4607 1 1.7663061948636899e-01 7.1274136003339535e+01 6.5820314667893129e+01 5.8099456723908268e+01 1 0 0
4699 1 1.3758967322398105e-01 8.0243381462523303e+01 6.7873172926887193e+01 6.1420815500865132e+01 1 0 0
4686 1 1.3243658978379022e-01 7.4148092567460381e+01 7.0891071315036442e+01 5.9844960018797508e+01 1 0 0
7810 1 1.3302996103950562e-01 8.0967639038156449e+01 7.4645144235484906e+01 5.8930070518038995e+01 1 0 0
4572 1 1.7069950780754498e-01 8.1391282663582572e+01 7.0786806945356957e+01 5.5102176372700278e+01 1 0 0
6147 2 -5.9540298180641460e-01 8.0424477731770068e+01 7.0089090376986405e+01 5.9465121588645616e+01 1 0 0
4615 2 -5.7356828295387075e-01 7.1830569580085410e+01 6.9702508339172397e+01 5.6428124130936979e+01 1 0 0
6137 3 1.1438437855759803e-01 7.7451799061973873e+01 7.1947853610726256e+01 6.0572420871251211e+01 1 0 0
4683 1 1.4161297564460684e-01 7.4331265407273975e+01 7.2675154287356307e+01 6.1540310468836189e+01 1 0 0
6150 3 4.7565097154269370e-01 8.1043122449637366e+01 7.1108151521346883e+01 5.8710098682535353e+01 1 0 0
4684 3 -2.1193026523349984e-01 7.3847617933266221e+01 6.9089010546380720e+01 6.1143937858913873e+01 1 0 0
6138 1 1.7688384318092462e-01 7.7810050649841557e+01 7.4057196149599719e+01 6.0243522574703768e+01 1 0 0
4689 1 1.8578379056824032e-01 7.3396984981470553e+01 6.8601397507747109e+01 6.0255717518084410e+01 1 0 0
4691 1 1.6016972914267999e-01 7.5939797608223685e+01 6.8506531303764561e+01 6.0244731678795354e+01 1 0 0
6140 3 -2.2301657602156819e-01 7.8753906430321948e+01 7.1132676705167867e+01 6.0794018179047704e+01 1 0 0
6143 3 2.4988055894818430e-02 7.8968968105581979e+01 7.0191936854846006e+01 5.9662569364958784e+01 1 0 0
6134 1 3.3722532275814326e-01 7.8039305490703555e+01 7.2942958688090201e+01 5.7740352509641582e+01 1 0 0
6149 1 1.5130134790184002e-01 7.8338209747771799e+01 7.0499108535667773e+01 5.8762341613657846e+01 1 0 0
6142 1 1.4000996606732211e-01 7.6709309575831426e+01 7.1345650114732692e+01 6.0066729891648095e+01 1 0 0
4685 1 1.4124864195235870e-01 7.2638641860782826e+01 7.0868210525098803e+01 6.0785625741446985e+01 1 0 0
4681 3 -1.8867012850202716e-01 7.3733050014512315e+01 7.0633720828544114e+01 6.0868114703184368e+01 1 0 0
4612 4 -4.6353750067219435e-01 7.1726372263754882e+01 6.9025636540206960e+01 5.8745167354947199e+01 1 0 0
6148 1 1.4239083890268550e-01 7.8408054720111039e+01 6.9257886597757491e+01 5.9898193755986270e+01 1 0 0
6136 3 1.7947879669708158e-04 7.7920236992149853e+01 7.3070074093451623e+01 5.9619114004712841e+01 1 0 0
4687 3 4.9548825847174773e-02 7.5325843633259097e+01 6.8623903282947722e+01 6.1248676593435690e+01 1 0 0
6144 1 1.8891522139638722e-01 7.9636154481596151e+01 7.1810562981953964e+01 6.1056212482970253e+01 1 0 0
6139 1 1.3807281798089444e-01 7.9036571812873646e+01 7.3111121539219681e+01 5.9598268868916364e+01 1 0 0
4614 1 2.9428088047326367e-01 7.2641478074653435e+01 6.8698502202482388e+01 5.8315782547701389e+01 1 0 0
6152 2 -5.3670537333338897e-01 8.0712376654196134e+01 7.1794555338632648e+01 5.7664501588115520e+01 1 0 0
4623 1 1.6812676641549887e-01 7.1381361397467444e+01 7.2125508194232665e+01 5.6467929595654297e+01 1 0 0
4692 2 -4.5620252196431327e-01 7.7509097169572414e+01 6.7909150921710278e+01 6.1485279893508256e+01 1 0 0
4511 2 -4.7390416779978495e-01 8.1067946599525797e+01 6.3942932296629316e+01 6.6745657806501896e+01 1 0 0
4510 1 1.9064662397813212e-01 7.9580134466859320e+01 6.5339443589989415e+01 6.6997774395205909e+01 1 0 0
4665 3 -1.8920096996672645e-01 7.5295198602677061e+01 6.6274309830944887e+01 6.6113118979654843e+01 1 0 0
4664 2 -5.6571507906680818e-01 7.5422401629755882e+01 6.3076137210926611e+01 6.5683944490136440e+01 1 0 0
4670 1 1.5733827477622875e-01 7.6345092456716259e+01 6.5957898821832146e+01 6.5773610646152434e+01 1 0 0
4662 3 5.1459715541356299e-01 7.4454064278579011e+01 6.3880556794851117e+01 6.5512771051313351e+01 1 0 0
4663 3 -2.4015671615117667e-01 7.4416476473000316e+01 6.5077898444180718e+01 6.6485261321086824e+01 1 0 0
4667 1 1.3447951135888381e-01 7.4664992028816897e+01 6.4845489320274694e+01 6.7619189023153467e+01 1 0 0
4470 1 1.6620987633887380e-01 7.7810155499764520e+01 6.2936875967261251e+01 6.5050332279572828e+01 1 0 0
4465 1 3.3240247278695212e-01 7.9604772112232183e+01 6.4062054465078035e+01 6.4889231871186666e+01 1 0 0
4469 1 1.7211090651073951e-01 7.7330744839192391e+01 6.4457613338824899e+01 6.4686559547283636e+01 1 0 0
4467 3 -2.0881450860843805e-02 7.7987531632671121e+01 6.3641823475378679e+01 6.4199254786524548e+01 1 0 0
4668 3 4.0707339241123089e-02 7.4552684546560926e+01 6.7191209933030052e+01 6.4966583282894945e+01 1 0 0
4669 1 1.7741160210183962e-01 7.5474622367359274e+01 6.6893156669485663e+01 6.7013693399335139e+01 1 0 0
4672 1 1.3637337134917510e-01 7.3519202329905255e+01 6.6751694281814892e+01 6.4671119140142352e+01 1 0 0
4655 3 5.6383524603714895e-02 7.3324484096355405e+01 6.2555878397760488e+01 6.3850910600429295e+01 1 0 0
4659 2 -5.4780656298064234e-01 7.3264642525336129e+01 6.3690552785175782e+01 6.4787412048776829e+01 1 0 0
4466 2 -6.2369458849842030e-01 7.9401041336776018e+01 6.4004027397654440e+01 6.3915286793697604e+01 1 0 0
4700 3 4.8205753694296571e-01 8.0241317059490612e+01 6.7255638624218022e+01 6.4872410853105478e+01 1 0 0
4697 3 -2.5767804372898956e-01 8.0693507510350358e+01 6.7008287823840817e+01 6.3450383251336653e+01 1 0 0
4673 1 1.5715950018019276e-01 7.5014859442242511e+01 6.6927753125785244e+01 6.4022336704228820e+01 1 0 0
4704 2 -5.9238056644394987e-01 7.9094159883186975e+01 6.7089244722372229e+01 6.5407544805453526e+01 1 0 0
4666 1 1.7074696680099000e-01 7.3302274989209991e+01 6.5424709249399683e+01 6.6613408129714969e+01 1 0 0
4701 1 1.8853330828806258e-01 8.0617935237521834e+01 6.5923635866915234e+01 6.3122036749957175e+01 1 0 0
4693 3 3.7949255707788218e-02 7.8269617592816019e+01 6.7374973260497569e+01 6.2495003799284120e+01 1 0 0
4468 3 9.1930965987479116e-02 7.7203670915590621e+01 6.3175946839598971e+01 6.2960604811577262e+01 1 0 0
4472 2 -5.6261017929063450e-01 7.5867173424166396e+01 6.4116832665903289e+01 6.2862705710580236e+01 1 0 0
4661 1 1.6238888351097960e-01 7.4183817091660742e+01 6.2396503205125669e+01 6.3131032117068060e+01 1 0 0
4652 3 -2.1781838070317094e-01 7.1980313823071683e+01 6.2539921119361580e+01 6.3117069291359172e+01 1 0 0
4696 1 1.6458894215655206e-01 7.8347518339462809e+01 6.6299211297412683e+01 6.2578680885236196e+01 1 0 0
4506 3 7.2329348117224877e-03 7.9448736899631768e+01 6.4862722009135382e+01 6.8036538443161874e+01 1 0 0
4694 3 -2.2126376033167280e-01 7.9833828745653406e+01 6.7822899504376480e+01 6.2478502443219440e+01 1 0 0
4656 1 1.7451331782276230e-01 7.2086486526318907e+01 6.3354769696577449e+01 6.2253191728067641e+01 1 0 0
4471 3 -2.4547891893173346e-01 7.6949307749362148e+01 6.1695346898989932e+01 6.3163508041454683e+01 1 0 0
4660 1 1.3512033135013271e-01 7.3480860671711980e+01 6.1536368453988459e+01 6.4366046830334312e+01 1 0 0
4596 1 2.6676555795969742e-01 7.3741457166503054e+01 6.5416363449971257e+01 6.2136269760291881e+01 1 0 0
486 3 -2.3314922644018665e-01 7.1782238324124606e+01 6.2131346296865352e+01 6.7248915326741113e+01 1 0 0
4695 1 1.7043841009579419e-01 7.7972779435516429e+01 6.7611447176472765e+01 6.3575241166390143e+01 1 0 0
4707 1 1.4409283775838111e-01 8.0451347113161930e+01 6.7797295861017034e+01 6.7426988867723082e+01 1 0 0
4473 1 1.7512787720533501e-01 7.7988544885039047e+01 6.3334215260883788e+01 6.2136352509084794e+01 1 0 0
4705 3 1.1320030094684536e-02 8.1459690944293712e+01 6.7808066088552110e+01 6.6934994305079144e+01 1 0 0
4703 2 -5.5088990774141910e-01 8.1429493524984807e+01 6.7772770182143219e+01 6.5476766123536095e+01 1 0 0
4475 1 2.0998105177446966e-01 7.6224988406893928e+01 6.1542390550306266e+01 6.3994869704821959e+01 1 0 0
4515 1 1.5052689768267791e-01 8.1108918078796094e+01 6.1844711434817306e+01 6.6891806440949111e+01 1 0 0
4644 1 1.1062430052260125e-01 7.1249814213219267e+01 6.9929962831978600e+01 6.5970889123940935e+01 1 0 0
4711 1 2.4895294580776697e-01 8.1987857376387183e+01 6.5827637411834985e+01 6.6555286237235933e+01 1 0 0
4702 1 1.4247614712828299e-01 8.1763570209166701e+01 6.7326347819767619e+01 6.3242870503228012e+01 1 0 0
4512 3 3.3226469596967491e-02 8.1681735719108886e+01 6.2738259395756018e+01 6.6599075555587660e+01 1 0 0
4517 1 2.0478664367338895e-01 8.1451706521129779e+01 6.2515037433233161e+01 6.4349108428241863e+01 1 0 0
4830 1 1.4372220600163502e-01 7.1233477520166275e+01 6.7961193017813542e+01 6.4309355958717234e+01 1 0 0
489 1 1.5439957349009437e-01 7.2012064079707415e+01 6.1659368327502193e+01 6.6271983617738442e+01 1 0 0
5991 3 -2.1550796061428276e-01 8.1376811047295348e+01 7.4819874961684505e+01 6.3660290933492192e+01 1 0 0
4671 2 -4.4504086945967414e-01 7.4553314883565108e+01 6.8496057700562190e+01 6.5369361349052582e+01 1 0 0
4688 1 1.7465178859781164e-01 7.3207323780959072e+01 6.8836312001550823e+01 6.2025575687551743e+01 1 0 0
4690 4 -1.3780965691963443e-01 7.5956763378683220e+01 6.8405126631787695e+01 6.2182840353991018e+01 1 0 0
4679 1 1.4648573019034603e-01 7.2337867627628825e+01 7.1471002538180272e+01 6.3068232885914277e+01 1 0 0
4674 4 -1.7302814207581096e-01 7.3302391094627197e+01 6.9419206040702960e+01 6.4556097643872576e+01 1 0 0
1716 2 -4.5441952754549447e-01 7.1974692054737176e+01 7.2842540436643844e+01 6.7333487367360306e+01 1 0 0
5977 1 1.8574596814430955e-01 7.5024996485270108e+01 7.4191582185336841e+01 6.3001356639674711e+01 1 0 0
6281 1 1.4402967959485918e-01 8.1254601552526751e+01 7.2046747762967840e+01 6.4657926103724847e+01 1 0 0
6282 1 1.4486532320084228e-01 8.0525746437201974e+01 6.9996519848181109e+01 6.6588782968226283e+01 1 0 0
6275 2 -4.9563612794054202e-01 7.9364622266034601e+01 7.1328983278181681e+01 6.3827974296296972e+01 1 0 0
5995 1 1.6027067042723556e-01 8.1033507763927645e+01 7.3721353227784491e+01 6.3606671013658371e+01 1 0 0
6277 3 6.9328698958399651e-03 8.0543026440546370e+01 7.1200443293834326e+01 6.4621131563786534e+01 1 0 0
1717 3 2.8622752285733414e-02 7.2883059374600649e+01 7.3831314914231740e+01 6.6951024388660443e+01 1 0 0
4675 3 2.7167130774438993e-02 7.3912928563736912e+01 7.0250655228840088e+01 6.4097406533398626e+01 1 0 0
6274 1 1.1510254901940414e-01 7.7488089299719761e+01 7.0111865086482695e+01 6.4092854146771529e+01 1 0 0
6278 1 1.3541489125610609e-01 7.8389132476120594e+01 6.9555747741222277e+01 6.6274846084855810e+01 1 0 0
6283 4 -4.4101276389385069e-01 8.0451921337267237e+01 7.2048159326142496e+01 6.7051542650649594e+01 1 0 0
6280 1 1.3523671438113208e-01 8.1319407609065351e+01 7.0440164626005512e+01 6.4378828614727581e+01 1 0 0
6285 1 3.0719990247031687e-01 7.9572918531282127e+01 7.2299706844007488e+01 6.7508175065525606e+01 1 0 0
6276 3 6.9637815776701112e-02 7.8538073369279687e+01 7.0657596085750086e+01 6.6021665396391825e+01 1 0 0
6271 1 1.3115659005984606e-01 7.5804456863007530e+01 7.2155275404998577e+01 6.6403141918291098e+01 1 0 0
6268 1 1.2428759181559690e-01 7.6221804314625373e+01 7.1911304697919888e+01 6.4097811299604757e+01 1 0 0
6267 1 2.6196652786579366e-01 7.8705461413964557e+01 7.3580957857965188e+01 6.4405596077547429e+01 1 0 0
6264 4 -4.3145293496375570e-01 7.7784278966950637e+01 7.3409977301695079e+01 6.3924869845681734e+01 1 0 0
6279 3 1.6858320901981552e-02 8.0030263117944855e+01 7.0935256859475061e+01 6.6110764037392030e+01 1 0 0
6272 1 1.7980831597775454e-01 7.6730775618150517e+01 7.3468151837823200e+01 6.6296263629142473e+01 1 0 0
6266 3 3.2138580556636933e-03 7.7184568597509610e+01 7.2123533322983775e+01 6.4622276959471336e+01 1 0 0
6273 2 -5.0037761148218518e-01 7.7909287992618630e+01 7.1676450173698058e+01 6.6907817162279073e+01 1 0 0
6269 3 6.9870254483632901e-03 7.6896381094641484e+01 7.2372993901975647e+01 6.6168449396848061e+01 1 0 0
1719 1 1.5797656007812888e-01 7.3850003132770922e+01 7.3481859424087531e+01 6.6494737219215551e+01 1 0 0
6270 3 8.7100404963443429e-02 7.8137717787069533e+01 7.0928992878985554e+01 6.4509257582097831e+01 1 0 0
4677 1 1.5704399144902639e-01 7.4999175416180492e+01 7.0162610183177577e+01 6.4254303283427348e+01 1 0 0
1720 1 1.4566534002691123e-01 7.2607577742937082e+01 7.4333359722574997e+01 6.5990703189291281e+01 1 0 0
4680 1 1.5045491296109412e-01 7.3512876503692269e+01 7.2453646325340742e+01 6.3857798014539128e+01 1 0 0
4676 3 -2.2305579065451819e-01 7.3426034093573989e+01 7.1493615578253213e+01 6.3234354214303650e+01 1 0 0
4698 1 1.5500771520631065e-01 7.9951956764025937e+01 6.8880837069947930e+01 6.2727631055108922e+01 1 0 0
4642 4 -1.2476405694092940e-01 7.1884348671093790e+01 7.1662475418079566e+01 6.6213708711889282e+01 1 0 0
4682 1 1.8473743726229466e-01 7.5385168741155411e+01 7.1352838231961286e+01 6.2187371614060780e+01 1 0 0
6146 3 6.4707444486989174e-01 7.8076740870763771e+01 7.3197351171009529e+01 6.2549807098691943e+01 1 0 0
4643 3 2.8272532611091224e-05 7.1294623527287186e+01 7.0799752598083401e+01 6.6694384328380124e+01 1 0 0
4678 3 -1.7331344072622079e-01 7.4307750582911453e+01 7.1602693038614731e+01 6.1921554718218985e+01 1 0 0
6265 2 -6.2966346860287448e-01 7.9099150428798453e+01 7.3784528316180229e+01 6.2045776610491025e+01 1 0 0
1726 1 2.1055635384413024e-01 7.5400886692133852e+01 7.4502606680451564e+01 6.7789294667438909e+01 1 0 0
6102 1 2.9649347678878396e-01 7.7606956369062317e+01 7.3395489619432695e+01 6.8114887450837060e+01 1 0 0
6141 2 -6.3135584453072369e-01 7.7074938326817730e+01 7.2506943526310437e+01 6.1894979190805799e+01 1 0 0
6113 1 1.5232320317704584e-01 7.5335632745164688e+01 6.9326232890481066e+01 6.7679122495550018e+01 1 0 0
4708 1 1.4179119476875399e-01 8.1872556230630323e+01 6.8743517668381003e+01 6.7495441804994186e+01 1 0 0
4657 1 2.2172083271193294e-01 7.1101897731304405e+01 6.2950547948101089e+01 6.3723298737173934e+01 1 0 0
6145 1 1.9591682062399279e-01 7.8704933240635512e+01 7.0591873057896734e+01 6.1791116741058261e+01 1 0 0
490 1 1.7903261287339745e-01 7.2768700649225408e+01 6.2549688593985728e+01 6.7572161441832264e+01 1 0 0
4987 2 -5.9014436882876886e-01 7.4420505987330785e+01 6.2606038885799336e+01 7.4258208715038791e+01 1 0 0
4509 4 -1.1829478213234250e-01 8.0174286727906633e+01 6.3998105536165774e+01 6.8210794557293525e+01 1 0 0
4507 1 1.4514224971568424e-01 7.7291708884499030e+01 6.4926932936848132e+01 6.8557908720896435e+01 1 0 0
1740 1 1.3761972830383459e-01 7.1611533682438846e+01 7.4702687779781002e+01 7.1252977929801688e+01 1 0 0
4710 1 1.8818415072617220e-01 8.1831396966533276e+01 6.6133172917126828e+01 6.8278798794755645e+01 1 0 0
4508 1 1.8887596972174814e-01 7.8217317704509824e+01 6.6389365319391828e+01 6.9062289213226478e+01 1 0 0
6112 2 -6.2671044037860490e-01 7.6217166225632283e+01 6.8100433297777712e+01 6.9387416186222254e+01 1 0 0
5153 3 1.8486731201666350e-02 8.0859696645522149e+01 6.2953984199686069e+01 7.4199971955571769e+01 1 0 0
4997 1 1.6288257897949368e-01 7.2293990682773497e+01 6.2707487130630824e+01 7.3034231840677734e+01 1 0 0
4496 1 1.6314843557745692e-01 7.7265498144201004e+01 6.1580480032327593e+01 7.1373777414409943e+01 1 0 0
4503 3 -2.0820398222613765e-01 7.8266999713930929e+01 6.5268129002919494e+01 6.8976306987512729e+01 1 0 0
5155 1 9.4375938804285367e-02 8.1148895893202834e+01 6.3075800553865065e+01 7.3106965766017254e+01 1 0 0
4502 1 1.5506111087055069e-01 7.6879729215308714e+01 6.5591152227369335e+01 7.1374470108699938e+01 1 0 0
4500 3 -1.7428513527054840e-01 7.8563069671412109e+01 6.4694567765099748e+01 7.0428041799884809e+01 1 0 0
4504 1 1.3821141160350980e-01 7.9390453773190956e+01 6.5275057666732181e+01 7.0977821523290572e+01 1 0 0
4497 3 -1.8174118455024316e-01 7.7293121855498882e+01 6.4532726679231445e+01 7.1264307545938976e+01 1 0 0
4501 1 1.9045843940670112e-01 7.7591908126577422e+01 6.4252720426326249e+01 7.2306543089648770e+01 1 0 0
4505 1 1.6091249860746468e-01 7.9133812031801966e+01 6.3713818666908175e+01 7.0265762071311599e+01 1 0 0
4495 3 -2.0120616753080250e-01 7.6173016380956028e+01 6.3599776562721431e+01 7.0717979763235604e+01 1 0 0
4499 1 1.4848186316485268e-01 7.5313970885153736e+01 6.3550509633773096e+01 7.1470165592826802e+01 1 0 0
6121 3 -2.1393268186845382e-01 7.3650789198976682e+01 6.6472757538977802e+01 7.2515791577843046e+01 1 0 0
4498 1 1.3406181675270443e-01 7.5687667295351531e+01 6.4046522713767033e+01 6.9785764615222277e+01 1 0 0
4494 3 2.2094360027764774e-02 7.6740895283120182e+01 6.2126797714604152e+01 7.0496513401238445e+01 1 0 0
4493 4 -9.5362542054951857e-02 7.6719427602100097e+01 6.1540211528713421e+01 6.9507235729402979e+01 1 0 0
6126 1 1.6739661228600650e-01 7.4654822885055637e+01 6.6730407981624907e+01 7.2168548636536855e+01 1 0 0
6125 1 1.5996929190095971e-01 7.3132662406600090e+01 6.5762962743252629e+01 7.1762619336065171e+01 1 0 0
4974 2 -4.8740360614336831e-01 7.7487879709087736e+01 6.5975752112918201e+01 7.3791954076120291e+01 1 0 0
4970 3 -8.3929384916388763e-03 7.7232430289298961e+01 6.7390051761732920e+01 7.4066823941201989e+01 1 0 0
4973 1 1.7124995403935767e-01 7.6248645413646628e+01 6.7827160045192059e+01 7.3769822030049156e+01 1 0 0
6470 1 1.3215046932607513e-01 8.1920929996697993e+01 7.4895436828898013e+01 7.2828064580274230e+01 1 0 0
4991 3 -2.8330938409747829e-02 7.2044158205528220e+01 6.2026012277531741e+01 7.3850298856637025e+01 1 0 0
6119 3 -2.1927910244473336e-01 7.2870432704825220e+01 6.7786543514776838e+01 7.2542914115429511e+01 1 0 0
6122 1 1.8539019487657751e-01 7.1874924083564608e+01 6.7730568211892631e+01 7.1943142446327030e+01 1 0 0
6123 1 2.3478813661971568e-01 7.2557737395943988e+01 6.8006377178135239e+01 7.3576489220714933e+01 1 0 0
6129 1 1.4911165202917429e-01 7.3235377200681100e+01 6.4637071113353500e+01 7.3735059436501956e+01 1 0 0
6124 3 4.8652468366207229e-02 7.3699576519620052e+01 6.5698073481444808e+01 7.3957691125558028e+01 1 0 0
4984 4 -4.4235112551747197e-01 7.6820943774724682e+01 6.3190350634840350e+01 7.4437100929156344e+01 1 0 0
6319 1 2.7441677224531785e-01 7.8173926577284888e+01 6.8193358983766117e+01 7.0673224709202714e+01 1 0 0
6133 1 2.9738048379349713e-01 7.6790636863702375e+01 6.8464560963678963e+01 7.0102821732141422e+01 1 0 0
6128 1 1.7466579562606421e-01 7.4752772874195145e+01 6.5330670828154254e+01 7.4007887858828909e+01 1 0 0
6114 1 1.7647952478098147e-01 7.6765787520795072e+01 6.9909868207184473e+01 6.8103171047318497e+01 1 0 0
6094 3 2.4956244711801315e-02 7.8703022932936392e+01 7.4979941455242823e+01 7.0924441427244346e+01 1 0 0
6304 3 -1.7175158128083037e-01 7.7233621406275432e+01 7.1460187462060006e+01 7.3640403468694828e+01 1 0 0
4972 1 1.1411328035955816e-01 7.7633388341797129e+01 6.8148851729698990e+01 7.3414251224262358e+01 1 0 0
6096 3 2.0680984466346461e-02 7.8746559000663595e+01 7.4110138947719307e+01 6.9576133073699410e+01 1 0 0
1734 1 1.9827935972278413e-01 7.2886406342911812e+01 7.4630746672370393e+01 7.2850952737481308e+01 1 0 0
6093 3 7.3234055973007195e-02 7.9619421578702713e+01 7.4864592507338358e+01 6.8585643247565727e+01 1 0 0
1718 3 -1.9316898654897277e-01 7.3264646228200149e+01 7.4963031176711880e+01 6.8016853161335717e+01 1 0 0
6284 3 5.6996765894580281e-01 8.1239736284093510e+01 7.1426776481852826e+01 6.8137452476174033e+01 1 0 0
6099 1 1.8533627360590463e-01 7.9269898304153912e+01 7.3178757141222547e+01 6.9840387593014242e+01 1 0 0
371 1 1.4045627349448633e-01 7.1226472508675826e+01 6.9936189817693489e+01 6.8735575400043814e+01 1 0 0
6117 1 1.0624393868861633e-01 7.2557339211883004e+01 7.1803206003721584e+01 7.0356767242056847e+01 1 0 0
6307 3 4.3288675838219347e-02 7.5828964466654497e+01 7.1851559546308209e+01 7.4346378858976450e+01 1 0 0
6294 1 1.8091892009570165e-01 8.0696627403959354e+01 6.9831816678873309e+01 7.2504413757868818e+01 1 0 0
1790 1 1.2519306058054058e-01 7.1434113774630703e+01 7.2392488313566744e+01 7.2659580075188885e+01 1 0 0
6101 3 5.9123147778874241e-01 7.6862299575968279e+01 7.2526716686871922e+01 6.9709472202700411e+01 1 0 0
6107 3 -4.7414622296566643e-02 7.5963926702641473e+01 6.9371698447148802e+01 6.8631838077758132e+01 1 0 0