LAMMPS data file via write_data, version 23 Jun 2022, timestep = 500000

8928 atoms
4 atom types

71.27084997926816 103.92915002075124 xlo xhi
61.434254324341524 88.56574567569099 ylo yhi
45.193208550067965 154.80679144992348 zlo zhi

Masses

1 1.008
2 15.999
3 12.011
4 14.007

Atoms # charge/kk

4645 1 3.0665012109724854e-01 7.7245884352735033e+01 6.7746949044358431e+01 5.2039740096178718e+01 1 0 0
7664 1 1.6639336740069247e-01 7.7902547030528467e+01 6.2469435176772159e+01 5.1616267360248266e+01 1 1 0
7660 3 -2.1767765463304370e-01 7.8913220523525212e+01 6.2163559764440237e+01 5.1839262271060043e+01 1 1 0
256 4 -4.2234277361540390e-01 7.1538008170890620e+01 6.1639741912476758e+01 5.0987443950757509e+01 1 0 0
4634 1 1.3885903477253930e-01 7.1393299254933623e+01 7.2710998834038733e+01 5.3054001902975138e+01 1 0 0
7663 3 2.7128053259034855e-02 7.9923802505648709e+01 6.2284516036720291e+01 5.0686575103191480e+01 1 1 0
7667 1 1.8144950342051586e-01 8.0131294682406434e+01 6.3337585188217126e+01 5.0235011269385097e+01 1 1 0
7668 2 -4.2323506431816554e-01 8.1488775773862770e+01 6.2415699881196616e+01 4.9121945208350766e+01 1 1 0
7674 1 1.4417929814141298e-01 8.4333158666017283e+01 6.2193894373015787e+01 4.8784009316590200e+01 1 1 0
7672 1 1.1438240844288858e-01 8.2347502044439935e+01 6.2029452256272791e+01 4.7204880623638800e+01 1 1 0
7669 3 4.1338183566145714e-02 8.2192207593523420e+01 6.1642424655372473e+01 4.8228944161729338e+01 1 1 0
7678 1 1.8864808420988924e-01 8.2810568694092353e+01 6.1618716387631238e+01 5.0818552751307195e+01 1 1 0
7666 4 -1.3103222190243127e-01 8.0592553141620968e+01 6.1457541040089687e+01 5.0285854662260839e+01 1 1 0
288 1 1.8337059593343435e-01 7.1427706241045314e+01 6.6271810461593503e+01 5.2806832349747573e+01 1 0 0
4831 1 2.8208673925135480e-01 7.9230042757973592e+01 6.4773137259037043e+01 5.3516944858703233e+01 1 0 0
7665 1 1.8114162430364167e-01 7.9140428429167571e+01 6.2872106888281955e+01 5.2716527741307949e+01 1 1 0
4807 2 -6.0537077878782408e-01 7.8235834075791573e+01 6.4613956921424943e+01 5.3501685860826697e+01 1 0 0
4809 1 1.4970146549219934e-01 7.8783336504121451e+01 6.4153582080233733e+01 5.5554089624042845e+01 1 0 0
4808 1 1.6026203846932383e-01 7.7821058037982596e+01 6.5448226668378965e+01 5.5527130618895157e+01 1 0 0
4802 3 -7.4641218270350990e-03 7.7954915072075025e+01 6.4485887393436897e+01 5.4920905298862806e+01 1 0 0
4810 2 -5.5862627361124173e-01 7.3942433543502119e+01 6.4304614584775464e+01 5.7278033455510979e+01 1 0 0
4803 1 1.5839728139564385e-01 7.6516564824478607e+01 6.3077101379524095e+01 5.4316710772352309e+01 1 0 0
4800 3 1.0907095599814316e-01 7.6739825277637152e+01 6.3591623674029648e+01 5.5270217959376041e+01 1 0 0
4801 3 -2.2073106866240116e-01 7.5666929248174142e+01 6.4690801066970920e+01 5.5568192388194575e+01 1 0 0
4611 1 1.8092591837380154e-01 7.5036478914020847e+01 6.6118621991695633e+01 5.8592532224980523e+01 1 0 0
4607 1 1.7562309571823215e-01 7.6289302800074026e+01 6.4274443649103077e+01 5.8094648898045463e+01 1 0 0
4796 3 5.7001307276811763e-01 7.7917245805727788e+01 6.1677466018391421e+01 5.6157184357251737e+01 1 0 0
4605 3 8.2025119007120215e-02 7.6948917786244465e+01 6.4932617632279019e+01 5.8651156566838324e+01 1 0 0
4602 2 -5.1785152440622351e-01 7.8200514332984255e+01 6.5432454067239689e+01 5.8011634997450912e+01 1 0 0
4798 2 -5.8579106119602764e-01 7.7049093316420226e+01 6.2714584630134794e+01 5.6466537177813564e+01 1 0 0
4806 1 1.9157226854374282e-01 7.6001850443968237e+01 6.5465560775757581e+01 5.6324147558278661e+01 1 0 0
4614 1 3.0935068404438154e-01 7.7428805356833777e+01 6.7077280759911403e+01 5.8087448144374328e+01 1 0 0
4612 4 -4.7364148308476034e-01 7.6620315396864541e+01 6.7433505577489484e+01 5.8580811424766210e+01 1 0 0
4805 1 1.8174819564085284e-01 7.5555410204703023e+01 6.5343659827817930e+01 5.4599322288953346e+01 1 0 0
4804 3 7.6950654769388185e-02 7.4341032367211255e+01 6.3971119099478884e+01 5.5944150264960513e+01 1 0 0
4812 1 1.3358436108576080e-01 7.4470919255680101e+01 6.2907889485799359e+01 5.5629295184883730e+01 1 0 0
4811 1 1.4360290058117037e-01 7.3586548012415420e+01 6.4130369091048323e+01 5.5087857172639161e+01 1 0 0
4813 3 4.9405227870037766e-01 7.2920146010079236e+01 6.3451736280668037e+01 5.7795814738427509e+01 1 0 0
287 2 -6.4392697876393423e-01 7.3305648778025414e+01 6.6698117736546365e+01 5.4042776843129694e+01 1 0 0
282 3 -8.6721802858583195e-03 7.1941569156026958e+01 6.6887396274633232e+01 5.3563053931578878e+01 1 0 0
293 1 3.2762495493225924e-01 7.3690116013162822e+01 6.6534094215205300e+01 5.3155951205041937e+01 1 0 0
4624 2 -5.8545843601433878e-01 7.6698515592776701e+01 6.7545405426826491e+01 5.2857156885576416e+01 1 0 0
4620 1 1.8609951980077988e-01 7.5255777456182273e+01 6.7868157597300339e+01 5.4780730087290586e+01 1 0 0
4613 3 5.8739565457403198e-01 7.5944425786155307e+01 6.8066896608566495e+01 5.7457501306505485e+01 1 0 0
4616 2 -5.6640630170170392e-01 7.4688240213779196e+01 6.8194592436244534e+01 5.7344718451625148e+01 1 0 0
285 1 2.5276256173354367e-01 7.2826592388750811e+01 6.6687963799287402e+01 5.6127501766839409e+01 1 0 0
4815 2 -6.4415799942624974e-01 7.2364419590305715e+01 6.2414553190268087e+01 5.7330625462134883e+01 1 0 0
290 2 -5.6347236606259155e-01 7.1640148935008142e+01 6.6737085003475116e+01 5.8511210214940633e+01 1 0 0
281 3 -1.7178107495489908e-01 7.1766646668701483e+01 6.7122777946770199e+01 5.6082801954069048e+01 1 0 0
286 1 1.9595770474725671e-01 7.2097840607447694e+01 6.8168317148737472e+01 5.6189507315125809e+01 1 0 0
289 1 1.4832927938161858e-01 7.1802203390665667e+01 6.7877070276016468e+01 5.3016810153060810e+01 1 0 0
4598 3 4.2821428936309454e-03 7.9278623181678341e+01 6.4495134879954691e+01 5.8408406637385610e+01 1 0 0
7717 1 3.0547321750807488e-01 8.6925373681098037e+01 6.2659396665963243e+01 5.1968354543010740e+01 1 1 0
7715 4 -4.3429531347693578e-01 8.7346283231670981e+01 6.3552230705616168e+01 5.2043879627938978e+01 1 1 0
7705 2 -4.8865565435927683e-01 8.5259803091869628e+01 6.2148593332799848e+01 5.3087241874196998e+01 1 1 0
4600 1 1.3828595230526963e-01 7.9632991125239997e+01 6.3637009223757488e+01 5.7755974713777888e+01 1 0 0
4601 1 1.6476469134802549e-01 8.0293496171131224e+01 6.4958279101821105e+01 5.8548531494473863e+01 1 0 0
7708 3 7.2054801932987023e-02 8.5847731538508711e+01 6.3063412233159433e+01 5.4098168521794896e+01 1 1 0
7710 1 1.2932011414422392e-01 8.5302930646491760e+01 6.3959429239831614e+01 5.4504296841192044e+01 1 1 0
4547 1 1.3652607659802080e-01 8.2376077184000906e+01 6.3247455990678183e+01 5.7248886411975846e+01 1 0 0
4544 3 6.2404179032268824e-04 8.3417859226929963e+01 6.3486647823624772e+01 5.7292256385599025e+01 1 0 0
4546 1 1.0799922700435524e-01 8.3628115473247050e+01 6.2615590846485695e+01 5.6507332701888693e+01 1 0 0
4548 2 -4.7728219079464768e-01 8.3815010862056383e+01 6.4887105170093136e+01 5.7114779623021164e+01 1 0 0
7702 3 1.0592220836861947e-01 8.6396015154857153e+01 6.2198788630716741e+01 5.5283633762157450e+01 1 1 0
4551 3 8.2218174972169336e-02 8.4251725735567078e+01 6.5439286641791853e+01 5.8376018137072450e+01 1 0 0
4560 1 2.7276201197236200e-01 8.5555054911843712e+01 6.5865171218215536e+01 5.6220049603236262e+01 1 0 0
7706 1 1.1975875926296435e-01 8.5599599049425848e+01 6.2259049202129141e+01 5.6089949472455565e+01 1 1 0
4558 4 -4.1130022727441773e-01 8.6334700133132145e+01 6.5616921233633704e+01 5.6842107344175218e+01 1 0 0
4554 3 -1.0637820089560834e-02 8.5766036883437593e+01 6.5799480490637265e+01 5.8245512190809052e+01 1 0 0
4557 1 1.7067770459111736e-01 8.5916712442481767e+01 6.6931530836710252e+01 5.8332818929036620e+01 1 0 0
7711 3 -1.0751546758711065e-02 8.7128111126338226e+01 6.3803944207598612e+01 5.3561254805530012e+01 1 1 0
4559 3 5.7601404793509214e-01 8.7333259966982851e+01 6.6560426168944076e+01 5.6336277069625197e+01 1 0 0
7714 1 1.7240040081760763e-01 8.7028986091509722e+01 6.4936315027895418e+01 5.3604706013380294e+01 1 1 0
4541 3 1.6718543777481290e-02 8.3926597047231994e+01 6.3087269603125968e+01 5.8703424568685953e+01 1 0 0
4539 4 -4.6897129749590122e-01 8.5102189945488476e+01 6.2038784197681871e+01 5.8668663453672416e+01 1 0 0
267 2 -4.3268619957942195e-01 7.1490320635125073e+01 6.1642963561595323e+01 5.3742776460399341e+01 1 0 0
4615 2 -5.9359365883984616e-01 7.6809175912573778e+01 6.8273877119998687e+01 5.6389657205128714e+01 1 0 0
4626 1 1.5409594671348531e-01 7.8134937980142197e+01 6.8332373484506604e+01 5.4407105980015075e+01 1 0 0
4619 3 -1.3235651035703337e-02 7.7153369261605164e+01 6.8438704439700473e+01 5.3890424882065737e+01 1 0 0
296 2 -5.4585958574915794e-01 7.1301124939391244e+01 6.9149794422096249e+01 5.8768130936420164e+01 1 0 0
4631 3 -2.4485715010704784e-01 7.1730980093249173e+01 7.2538342597337945e+01 5.4086583431344181e+01 1 0 0
4617 3 1.3133914811605657e-01 7.6154143879220030e+01 6.8523586688151866e+01 5.5065025220419322e+01 1 0 0
4625 1 1.0255864746389101e-01 7.7370842164435487e+01 6.9521576772309658e+01 5.3564812335001712e+01 1 0 0
4630 3 4.8603575097480234e-01 7.1973805942170756e+01 7.1053654293430696e+01 5.4420240754031809e+01 1 0 0
4622 1 1.6022405197104700e-01 7.5811322233114254e+01 7.0567485205359205e+01 5.4242182550524689e+01 1 0 0
4628 1 1.6252689118276017e-01 7.3601081041647177e+01 6.8894632887745630e+01 5.4799796055537961e+01 1 0 0
4618 3 -2.3519133358931626e-01 7.5526782687051494e+01 6.9956040836478238e+01 5.5104129658783215e+01 1 0 0
4623 1 1.7007011922357648e-01 7.5926973462596408e+01 7.0558392597782714e+01 5.5965127010487137e+01 1 0 0
4621 3 5.9173628127771612e-02 7.3943920063259881e+01 6.9964826632146796e+01 5.5147997707345858e+01 1 0 0
4629 1 1.7845428456466117e-01 7.3779393431064591e+01 6.9891802926016439e+01 5.6310454293432464e+01 1 0 0
4627 2 -5.6250680349728610e-01 7.3388349912646405e+01 7.1154419163107619e+01 5.4615462241362835e+01 1 0 0
4635 1 1.9472679865160542e-01 7.2683165457317841e+01 7.3148434034821548e+01 5.4194336617963650e+01 1 0 0
4640 1 1.6112058856134970e-01 7.2094997899262339e+01 7.2327238932411575e+01 5.6589587437003274e+01 1 0 0
4686 1 1.3583445688002596e-01 7.9066916986185646e+01 6.9654263062299847e+01 5.8755197775844238e+01 1 0 0
6135 2 -6.0482596210106265e-01 8.1682175846388930e+01 7.1485366494900148e+01 5.7332056443758113e+01 1 0 0
6148 1 1.2531758823791278e-01 8.3490264580019272e+01 6.8373550188242561e+01 5.8751768456018688e+01 1 0 0
6134 1 2.9796441127280271e-01 8.1651543252658655e+01 7.2269117068644448e+01 5.6662219877145780e+01 1 0 0
6138 1 1.5046607468623582e-01 8.2642852952388253e+01 7.2960937598324776e+01 5.8722498445797058e+01 1 0 0
6139 1 1.4261063058144496e-01 8.3715348964463857e+01 7.2048319336447562e+01 5.8204590506650298e+01 1 0 0
6150 3 4.8354284394380509e-01 8.6279028485275418e+01 6.9947876810130253e+01 5.7618993402906540e+01 1 0 0
6136 3 -2.0507072863215226e-02 8.2643729674931407e+01 7.1905938546511138e+01 5.8360126396671220e+01 1 0 0
7810 1 1.5307365355962610e-01 8.5949604443615996e+01 7.4009738940511696e+01 5.8617426370246086e+01 1 0 0
3155 3 1.7535316372108506e-02 8.7463856494232459e+01 7.3962309435104146e+01 5.6252339338025301e+01 0 0 0
6143 3 3.0565414887822967e-02 8.4126668565247158e+01 6.9381477642817686e+01 5.8626140905862890e+01 1 0 0
6149 1 1.7474011915178833e-01 8.3628447831557068e+01 6.9846018019430844e+01 5.7781858100773093e+01 1 0 0
6147 2 -5.8291567042185943e-01 8.5575464393495864e+01 6.9243315647971983e+01 5.8608690286900575e+01 1 0 0
273 1 1.8370136717652580e-01 7.1435484756709329e+01 6.3656768646508496e+01 5.4633988985820885e+01 1 0 0
6152 2 -5.4469244088601787e-01 8.5858836290050220e+01 7.0543354645892336e+01 5.6564659057223345e+01 1 0 0
259 1 3.5879661852686145e-01 7.2238120113112899e+01 6.1690060941543884e+01 5.1794442782843802e+01 1 0 0
3156 1 1.2579664217341985e-01 8.7224996594433179e+01 7.2927530337280004e+01 5.6598012251590148e+01 0 0 0
4572 1 1.8403120533185133e-01 8.6803682706716799e+01 6.9098248579640099e+01 5.4460539994621705e+01 1 0 0
4561 2 -5.8829738771159434e-01 8.7309095671736230e+01 6.6933361384940952e+01 5.5008811742673110e+01 1 0 0
4553 1 1.2386887595734343e-01 8.3831304231631179e+01 6.6414542165691174e+01 5.8658134129891565e+01 1 0 0
4659 2 -5.6115720780353173e-01 7.8648083516220865e+01 6.3419108437283803e+01 6.4621255534064218e+01 1 0 0
4830 1 1.8213908310227972e-01 7.6643866027909908e+01 6.4752047726766136e+01 6.5223041075539470e+01 1 0 0
4656 1 2.1548249441094441e-01 7.7074722200508432e+01 6.3424484969929253e+01 6.2396578840705999e+01 1 0 0
4596 1 2.6453835749026183e-01 7.9155223871546468e+01 6.4452481649312560e+01 6.1848953365719190e+01 1 0 0
4827 3 -1.8255246450624832e-01 7.5517929171648248e+01 6.5071880075905923e+01 6.5247198252179757e+01 1 0 0
4826 3 2.7134602984488835e-02 7.4841885163259818e+01 6.4633757744688012e+01 6.3895303577435392e+01 1 0 0
4828 1 1.8814220145422686e-01 7.5092438233582541e+01 6.5147014452390152e+01 6.2910988477414136e+01 1 0 0
308 3 -2.1468356431552296e-01 7.5558530477953781e+01 6.6645734583235480e+01 6.5340038144731267e+01 1 0 0
307 3 2.7515660490220532e-02 7.5368120745765452e+01 6.7270607570351018e+01 6.3925782840191779e+01 1 0 0
4825 4 -1.3436316383717317e-01 7.4004649558915673e+01 6.3871173347252444e+01 6.3749783215510597e+01 1 0 0
4604 2 -5.0246698103052545e-01 7.6945889163832561e+01 6.4916398392537388e+01 6.1121368220785079e+01 1 0 0
4688 1 1.7977774389624573e-01 7.8499813370034587e+01 6.7449564937522013e+01 6.1076929232519184e+01 1 0 0
4610 1 1.7871775163520606e-01 7.6079630115246005e+01 6.7052760568600618e+01 6.1096857166702911e+01 1 0 0
4609 1 1.3795775580530620e-01 7.4908193174550092e+01 6.5839043584507806e+01 6.0962969224514815e+01 1 0 0
4606 3 -3.2794156434199744e-03 7.5999893564746131e+01 6.5963827949667447e+01 6.0644459354294263e+01 1 0 0
4822 2 -4.5012892856252412e-01 7.3612761438043677e+01 6.3956643880291338e+01 6.2091137510416544e+01 1 0 0
4655 3 6.3284487862608360e-02 7.8557478675706776e+01 6.2295401418512753e+01 6.3666907217083029e+01 1 0 0
4599 3 8.4818099429340293e-02 7.7310197611965137e+01 6.4129831281554132e+01 5.9946066286176830e+01 1 0 0
4819 3 2.5605881991483063e-02 7.3034987334891554e+01 6.2786401900404748e+01 6.1702380900537328e+01 1 0 0
4816 3 -1.9918135349421784e-01 7.2796390134223643e+01 6.2575258510353642e+01 6.0111010878381848e+01 1 0 0
4595 3 2.6142512211064079e-02 7.8866780202357504e+01 6.3925129804515585e+01 5.9782909812739923e+01 1 0 0
4823 1 1.1420858872981181e-01 7.3373466473438555e+01 6.1794150895703844e+01 6.2119621400511313e+01 1 0 0
4689 1 1.8698865615698279e-01 7.8758521169497115e+01 6.7129216085454019e+01 5.9303390633421557e+01 1 0 0
4652 3 -2.2248663272014840e-01 7.7167202882920975e+01 6.2459972562970847e+01 6.2981214064340357e+01 1 0 0
4657 1 1.8441901577129227e-01 7.6423854759874573e+01 6.2456013712483553e+01 6.3837966608800862e+01 1 0 0
4817 1 1.6891475902084765e-01 7.1846353501193263e+01 6.4523913829005281e+01 5.9412812762189752e+01 1 0 0
309 1 1.6019595975489470e-01 7.6187993171996425e+01 6.7126626055508282e+01 6.3178758632981690e+01 1 0 0
43 1 1.5806421388398906e-01 7.1726825347575243e+01 6.5625832626176248e+01 6.2510301761302181e+01 1 0 0
4818 1 1.8395000841804776e-01 7.3593957257044082e+01 6.4585353441536185e+01 5.9588181946320589e+01 1 0 0
4603 1 1.1620306011330998e-01 7.6842792183927699e+01 6.3122155150709013e+01 5.9808147449442330e+01 1 0 0
4814 3 -2.2012897764735495e-01 7.2787821335171159e+01 6.3870741488510241e+01 5.9283785228313803e+01 1 0 0
44 1 2.1433143782983499e-01 7.1857021270971515e+01 6.5245805237935855e+01 6.4233947769206168e+01 1 0 0
4824 1 1.2552620465114819e-01 7.2044122179157043e+01 6.2682039721229415e+01 6.2251055133505417e+01 1 0 0
295 3 -1.9534694108451905e-01 7.2776943251975268e+01 6.8140649408243178e+01 6.0253552835769497e+01 1 0 0
306 4 -1.8688497472674864e-01 7.4427081026765393e+01 6.7820807111128019e+01 6.3579886624972666e+01 1 0 0
48 3 3.8398756890165170e-02 7.1427310992237565e+01 6.1970108984555736e+01 6.5075980370493099e+01 1 0 0
299 1 1.9028195704598774e-01 7.3686361663628006e+01 6.7467242883363497e+01 6.0077571364323617e+01 1 0 0
37 1 1.4373659472523700e-01 7.2394335048151618e+01 6.7241060661135776e+01 6.5062239744011165e+01 1 0 0
4654 1 1.3260833400151109e-01 7.6074311943925935e+01 6.1646980715489647e+01 6.1208619529993946e+01 1 0 0
4684 3 -1.9690800126712613e-01 7.9103435593775984e+01 6.7815950032185597e+01 6.0159761384378385e+01 1 0 0
4542 1 3.1480149045041261e-01 8.5874726600218494e+01 6.2684320921075354e+01 5.9081810104336391e+01 1 0 0
4820 1 1.1186766009089785e-01 7.1844799312284707e+01 6.1977154322888168e+01 5.9954729080747512e+01 1 0 0
116 3 -1.8925144160429325e-01 7.1403075527861873e+01 6.9082551931664710e+01 7.1520746863242863e+01 1 0 0
298 1 1.5276133847537984e-01 7.2357528967858130e+01 6.7823671711697230e+01 6.1276151359431353e+01 1 0 0
4821 1 1.2930028039823099e-01 7.3497951696773171e+01 6.1744600832083854e+01 5.9707754216077355e+01 1 0 0
294 3 4.9488722859563078e-01 7.1747982175332140e+01 6.7993171318378998e+01 5.9116087383035662e+01 1 0 0
4597 1 1.5850707934684824e-01 7.9159911350240037e+01 6.2802309138455378e+01 5.9821041378958746e+01 1 0 0
4672 1 1.5945778166694477e-01 7.9205235136368927e+01 6.5807261440124336e+01 6.4291741408353715e+01 1 0 0
6093 3 9.2799584990701220e-02 8.4308875018413971e+01 7.4151067260123725e+01 6.8213963368504395e+01 1 0 0
4661 1 1.7601877140980127e-01 7.9379766103491804e+01 6.2111033039600372e+01 6.2878971057043280e+01 1 0 0
4674 4 -1.4487727224651181e-01 7.8829987224251894e+01 6.8219683346403471e+01 6.3669331945694246e+01 1 0 0
33 3 -1.6971431487553446e-01 7.1578736032691324e+01 6.7872451774500391e+01 6.4589663363919243e+01 1 0 0
49 3 -2.0058381211974760e-01 7.2962076636712197e+01 6.1560689603231786e+01 6.5297025250245255e+01 1 0 0
4608 3 -3.6964784980592046e-02 7.6025675168225604e+01 6.6084004098864142e+01 5.9106260678968845e+01 1 0 0
4555 1 1.4347824072612245e-01 8.7041500711142731e+01 6.5862264822754852e+01 5.9945003817492413e+01 1 0 0
4662 3 4.9326075386672169e-01 7.9681129625849891e+01 6.3187218129891640e+01 6.5575712728665465e+01 1 0 0
4593 4 -4.1482402306680088e-01 7.9694933787178329e+01 6.4449589313819189e+01 6.0913573542296973e+01 1 0 0
4671 2 -4.5826685838897624e-01 8.0305409962471487e+01 6.7546098034242391e+01 6.4356006807124999e+01 1 0 0
4668 3 4.3810449362076766e-02 8.0229096334940067e+01 6.6185715067090797e+01 6.4384903262409438e+01 1 0 0
4673 1 1.6240265606096480e-01 8.0646630289858521e+01 6.5555162740546663e+01 6.3521153477235146e+01 1 0 0
4687 3 2.6069455423165088e-02 8.0645973169109482e+01 6.7719648199297197e+01 6.0370003123953552e+01 1 0 0
4477 3 5.9572108677804081e-01 8.0987426100825274e+01 6.3790028939110734e+01 6.1139674041139465e+01 1 0 0
4690 4 -9.6941232259499827e-02 8.1129166863550651e+01 6.7369716131396416e+01 6.1337709791932518e+01 1 0 0
4472 2 -6.2430297564249060e-01 8.1335084049749696e+01 6.3540120246745573e+01 6.2446271777557712e+01 1 0 0
4594 2 -6.3198301142956792e-01 8.1574424860087092e+01 6.3395082508526798e+01 6.0070900174516282e+01 1 0 0
4468 3 1.2227201056476739e-01 8.2487742562413345e+01 6.2594173312968948e+01 6.2702699287624661e+01 1 0 0
4469 1 1.3350899898904034e-01 8.2972888335059650e+01 6.4329641190202011e+01 6.3855164683209388e+01 1 0 0
4470 1 1.3464396722845196e-01 8.2922981689494392e+01 6.3037545177562279e+01 6.4724077024994799e+01 1 0 0
4473 1 1.6583083906180091e-01 8.3164763089299313e+01 6.2339673434654301e+01 6.1783057299204089e+01 1 0 0
4467 3 -1.5758962622606430e-02 8.3373490003807476e+01 6.3325998560192168e+01 6.3757709613976587e+01 1 0 0
4696 1 1.3490708293139417e-01 8.3382762797988860e+01 6.5475621593175831e+01 6.1885673599333067e+01 1 0 0
4693 3 5.8161251552710250e-02 8.3489913687326592e+01 6.6657087177521134e+01 6.1918285129459797e+01 1 0 0
4466 2 -6.2250103147598923e-01 8.4816835000266721e+01 6.3123248020605111e+01 6.3575201901459373e+01 1 0 0
4465 1 3.5469850279300635e-01 8.5103915137873784e+01 6.2992724452942383e+01 6.4519564419246848e+01 1 0 0
4700 3 4.7999875284719412e-01 8.5570437806134819e+01 6.6752627600531312e+01 6.4281030899330872e+01 1 0 0
4697 3 -2.6052466067509539e-01 8.5908455739694659e+01 6.6207280956732674e+01 6.2863057794576903e+01 1 0 0
4701 1 2.1684695443977972e-01 8.5728602971868582e+01 6.5120421396636445e+01 6.2827805944441486e+01 1 0 0
4702 1 1.6014781476483095e-01 8.7014741757830535e+01 6.6384218814088825e+01 6.2731418990517277e+01 1 0 0
4704 2 -5.9259315991980710e-01 8.4496420410084994e+01 6.7285856725803029e+01 6.4657367228879721e+01 1 0 0
4703 2 -5.7199667213750705e-01 8.6754285054529262e+01 6.6357557556433761e+01 6.4980642168899578e+01 1 0 0
4694 3 -1.8563768813113540e-01 8.5077062704290057e+01 6.6949781943960346e+01 6.1839418252256969e+01 1 0 0
4692 2 -4.7117723882435364e-01 8.2808208514952170e+01 6.7412629435155040e+01 6.1011969353306483e+01 1 0 0
4699 1 1.4615231655676036e-01 8.5413368374590746e+01 6.6844360646732980e+01 6.0762357878776534e+01 1 0 0
4549 1 1.6817323202395354e-01 8.3324388433514358e+01 6.4569460491388426e+01 6.0194299540404430e+01 1 0 0
4695 1 1.7204766387914960e-01 8.3062735415189522e+01 6.6744027064778493e+01 6.3041598652944522e+01 1 0 0
4550 2 -4.9139091635518573e-01 8.5529180592194734e+01 6.4200614434186960e+01 6.0135126306451291e+01 1 0 0
4552 3 -3.7767119227869643e-03 8.6434284615584261e+01 6.5058949750621949e+01 5.9414888140246596e+01 1 0 0
4545 3 7.2135059868770016e-02 8.4182942490169111e+01 6.4317795031522749e+01 5.9580744696398924e+01 1 0 0
4543 1 2.1428638857392202e-01 8.3126414488091470e+01 6.2511690938984472e+01 5.9295366343712665e+01 1 0 0
4670 1 1.1948215555805047e-01 8.1788976020331503e+01 6.4921434891091707e+01 6.5498786026500582e+01 1 0 0
4691 1 1.3777632372220039e-01 8.1367150275850065e+01 6.7935373787417106e+01 5.9456895428789558e+01 1 0 0
4533 1 1.7689275112368200e-01 8.7422865551400420e+01 6.2171914104672844e+01 6.0617458919697796e+01 1 0 0
4665 3 -2.0017163967800380e-01 8.0829942547493573e+01 6.5453743609332548e+01 6.5718975434307623e+01 1 0 0
4556 1 2.2482550904717935e-01 8.7340747981480092e+01 6.4581280647978389e+01 5.8959861189666825e+01 1 0 0
302 1 1.7086323897973046e-01 7.3607897396856259e+01 7.0048625038082676e+01 5.9412972736787957e+01 1 0 0
303 2 -4.8142099689829981e-01 7.4778592744197866e+01 6.8247266960680236e+01 6.1907623621116855e+01 1 0 0
38 1 1.4157623305504188e-01 7.2135962170213730e+01 6.8524329932294449e+01 6.3893506904813144e+01 1 0 0
4685 1 1.5075357756668853e-01 7.7564288549920690e+01 6.9295866246040745e+01 5.9739751418486854e+01 1 0 0
4643 3 2.1999259940175944e-02 7.5677366892828161e+01 7.0593765858313603e+01 6.5543836028296838e+01 1 0 0
1720 1 1.5694472946574273e-01 7.8130860777690884e+01 7.3216993485310667e+01 6.4650290088189806e+01 1 0 0
4680 1 1.5954466139062576e-01 7.8554871803967870e+01 7.1167445755832432e+01 6.2759868954432513e+01 1 0 0
4676 3 -2.0511991236262953e-01 7.8497051507976622e+01 7.0183761158488110e+01 6.2245611818167440e+01 1 0 0
4642 4 -1.5110954215090308e-01 7.6454654881494747e+01 7.1137223478462133e+01 6.4929458597986738e+01 1 0 0
4644 1 1.0993638929543148e-01 7.4871288187374404e+01 7.0227474992584987e+01 6.4857732067022098e+01 1 0 0
4679 1 1.5598504295103974e-01 7.7382759015624785e+01 6.9961281405969942e+01 6.2223315985319147e+01 1 0 0
1709 1 1.3997661767355851e-01 7.5014925129078350e+01 7.3645495434045031e+01 6.4303224965926304e+01 1 0 0
300 3 2.6533279760535090e-02 7.4356974054314961e+01 6.9517094693175878e+01 6.1572535853429201e+01 1 0 0
305 1 9.3844732520381766e-02 7.5105199725288145e+01 7.0374274969568702e+01 6.1362651470253198e+01 1 0 0
297 3 -1.8535184307170277e-01 7.3270913921006766e+01 6.9612811384349968e+01 6.0381510947040887e+01 1 0 0
304 1 1.1109294758116525e-01 7.3941488605327677e+01 7.0062943624012945e+01 6.2424769154332431e+01 1 0 0
4681 3 -1.8304011226551656e-01 7.8724950145275855e+01 6.9332526543580059e+01 5.9814598957227446e+01 1 0 0
5978 2 -4.9912197807207126e-01 7.7545601673241677e+01 7.3741767209107877e+01 6.2172473552213866e+01 1 0 0
5975 3 6.6000555350245918e-02 7.8206240045303915e+01 7.4645822937473497e+01 6.1515962106786510e+01 1 0 0
301 1 1.5127714748348670e-01 7.2397855678491354e+01 7.0285574623063184e+01 6.0653737012363834e+01 1 0 0
4678 3 -1.7987815547452565e-01 7.9210388317801161e+01 7.0343114848044166e+01 6.0876195580028252e+01 1 0 0
4683 1 1.2919086152610770e-01 7.9098799703174066e+01 7.1383630997930126e+01 6.0561171488231189e+01 1 0 0
1717 3 3.9583058148856667e-02 7.8444523329843477e+01 7.2666039510380230e+01 6.5575808204336084e+01 1 0 0
4675 3 4.6482642398542051e-02 7.9245259300774094e+01 6.9092069357737074e+01 6.3079218126648279e+01 1 0 0
4517 1 1.8920083200849327e-01 8.7455355978923819e+01 6.2779993455510365e+01 6.4243012894893297e+01 1 0 0
1719 1 1.5965273032271038e-01 7.9403721195616555e+01 7.2236385016370605e+01 6.5111129392236009e+01 1 0 0
1705 3 -1.8697603227463760e-01 7.4683272640994531e+01 7.4670799830842810e+01 6.4579818954456954e+01 1 0 0
1710 1 1.3069385203948461e-01 7.3834058789829115e+01 7.4785026146506908e+01 6.3845029148935474e+01 1 0 0
6142 1 1.3399672846089553e-01 8.1726194356727689e+01 7.0260783293437811e+01 5.9431679534027438e+01 1 0 0
5998 1 1.7670224123019918e-01 8.7322818819863443e+01 7.3664721938258353e+01 6.2553756385203414e+01 1 0 0
4698 1 1.6622961127001837e-01 8.5196364707946728e+01 6.8106391894688159e+01 6.1907158373245259e+01 1 0 0
5977 1 1.7399654458061076e-01 7.9944024023847419e+01 7.3099852396159505e+01 6.1729853849640449e+01 1 0 0
4677 1 1.8258976567130575e-01 8.0386537585523016e+01 6.9084552860701905e+01 6.3161828423036731e+01 1 0 0
4682 1 1.5205278413661791e-01 8.0322775221157769e+01 7.0298581701070376e+01 6.0923268824283774e+01 1 0 0
6271 1 1.7183319294860899e-01 8.1509827800878270e+01 7.2467788360989772e+01 6.5102447617224783e+01 1 0 0
6268 1 1.7051848450253837e-01 8.1903764216580768e+01 7.1713436689078264e+01 6.3001270271360788e+01 1 0 0
6278 1 1.6029334510854898e-01 8.3384733700131903e+01 6.9208474584767146e+01 6.5610327311689758e+01 1 0 0
6145 1 2.1308652063263689e-01 8.3847464576355733e+01 6.9747640846674329e+01 6.0838364168271823e+01 1 0 0
6272 1 2.0059964481190098e-01 8.2930634475918481e+01 7.3373184760476050e+01 6.5201470737525838e+01 1 0 0
6269 3 1.7581913632987008e-02 8.2634857393595126e+01 7.2291879361770640e+01 6.5086610741865343e+01 1 0 0
6266 3 -1.1010618607909680e-03 8.2842057708411048e+01 7.1763285184585513e+01 6.3622554950618706e+01 1 0 0
6141 2 -5.9721885506543704e-01 8.2510810921087824e+01 7.1837222522093128e+01 6.0984619236175668e+01 1 0 0
6274 1 1.2637956694171687e-01 8.2617170150580776e+01 6.9692220381377780e+01 6.3420449781327157e+01 1 0 0
6264 4 -4.5872038343318922e-01 8.3647948288916609e+01 7.2821926876951380e+01 6.2820976656880248e+01 1 0 0
6270 3 9.1799031430554706e-02 8.3488660153368258e+01 7.0366292576245414e+01 6.3725311897795152e+01 1 0 0
6146 3 6.1834068381338969e-01 8.3574818850910518e+01 7.2638894174868170e+01 6.1383756593251320e+01 1 0 0
6267 1 2.8094445232649518e-01 8.4575118221070667e+01 7.2403956310849864e+01 6.3008850075583922e+01 1 0 0
6265 2 -6.2823611174037441e-01 8.4439333573856715e+01 7.3156616511577923e+01 6.0631482427528525e+01 1 0 0
6276 3 1.0305727026402750e-01 8.3779648583818442e+01 7.0218357582738008e+01 6.5267042898371670e+01 1 0 0
6275 2 -5.0546776067563315e-01 8.4728686809186257e+01 7.0432611343281948e+01 6.2943135290936311e+01 1 0 0
6281 1 1.4479414791368489e-01 8.6589421681358871e+01 7.1164865553630520e+01 6.3995561495583502e+01 1 0 0
6277 3 2.1288716806594655e-02 8.5808558200668884e+01 7.0334190059203195e+01 6.3854798424919423e+01 1 0 0
6280 1 1.2015975648393812e-01 8.6556838956935948e+01 6.9496920817903330e+01 6.3725588676600822e+01 1 0 0
6279 3 -5.9387869630376433e-03 8.5346258678022963e+01 7.0182985875790052e+01 6.5373702214854887e+01 1 0 0
6160 1 1.3021789762250643e-01 8.7087307623267492e+01 7.0335937699285040e+01 6.0566836304505287e+01 1 0 0
6144 1 1.9825450335371561e-01 8.4667959713584594e+01 7.1048754970102891e+01 5.9895621265500303e+01 1 0 0
5976 1 1.2540447213367453e-01 8.0126077595455399e+01 7.3922343882045027e+01 6.0112414538866915e+01 1 0 0
5972 3 -1.8477075393577899e-01 7.9811892476804644e+01 7.4095861309719922e+01 6.1206268671058311e+01 1 0 0
6140 3 -2.1094670467198126e-01 8.3835412262049658e+01 7.0290217137772899e+01 5.9827382834299087e+01 1 0 0
6137 3 8.0661842076666657e-02 8.2531945967555714e+01 7.1015247146822574e+01 5.9622847385185729e+01 1 0 0
6161 1 1.3208002876493427e-01 8.6863666046995547e+01 7.1964120000808848e+01 6.0432892738163901e+01 1 0 0
5971 2 -6.2819222664251162e-01 8.0698229812167682e+01 7.4044390171036355e+01 6.4181582927837383e+01 1 0 0
35 1 1.2544971860386403e-01 7.1500622752361465e+01 6.9633814835039772e+01 6.5932838186684549e+01 1 0 0
5994 3 6.1936621150439283e-03 8.7025329018479908e+01 7.4727139128756505e+01 6.2847841280367000e+01 1 0 0
5995 1 1.5705048185089693e-01 8.4912142070342156e+01 7.4684093578138643e+01 6.3601330876988690e+01 1 0 0
6282 1 1.7118476514428449e-01 8.5696640700087698e+01 6.9233213789016716e+01 6.5857099870519278e+01 1 0 0
5974 1 1.5133322026154553e-01 8.1851323845771077e+01 7.4741583836348212e+01 6.1583093563034573e+01 1 0 0
4829 1 2.0750887075405106e-01 7.4943195006617458e+01 6.4620536569297016e+01 6.6144982344851954e+01 1 0 0
310 1 1.3668895445173870e-01 7.6454526630112809e+01 6.7009069488123330e+01 6.5904005848189527e+01 1 0 0
63 1 1.7765435613133912e-01 7.3556308892503139e+01 6.2174151464197358e+01 7.0949423896010146e+01 1 0 0
6101 3 5.9980202891148482e-01 8.1389986118435758e+01 7.1723509471171681e+01 6.9196622670170697e+01 1 0 0
311 1 1.4722193521482754e-01 7.4738724886866649e+01 6.7063054676764722e+01 6.6005614736705184e+01 1 0 0
62 1 1.6038120959700905e-01 7.1946027716766821e+01 6.2016164420087414e+01 7.0327356676637407e+01 1 0 0
53 1 2.0662305141888618e-01 7.3578790800130690e+01 6.2405976838262035e+01 6.5456629674178174e+01 1 0 0
4666 1 1.5600452104844764e-01 7.8735845361765712e+01 6.5058170965728053e+01 6.6253075368181030e+01 1 0 0