LAMMPS data file via write_data, version 23 Jun 2022, timestep = 500000

8928 atoms
4 atom types

67.23157941621514 107.96842058380426 xlo xhi
57.29993820999429 92.70006179002436 ylo yhi
71.44320855006796 128.55679144992348 zlo zhi

Masses

1 1.008
2 15.999
3 12.011
4 14.007

Atoms # charge/kk

260 1 1.7724156231728797e-01 7.3449630414214354e+01 6.0489407820946013e+01 7.1702555335457092e+01 0 0 0
478 2 -6.4695618892131868e-01 7.5237419967932098e+01 6.1957847897844346e+01 7.7513196651701534e+01 0 0 0
484 1 3.1835906097634759e-01 7.4663985341150777e+01 6.2522511992710328e+01 7.6938903160483605e+01 0 0 0
258 3 -1.0433629114514387e-02 7.3136195175910601e+01 6.1594035267325374e+01 7.1765116736124156e+01 0 0 0
7614 1 2.2104969227161850e-01 7.6778500768747790e+01 5.9499055275442338e+01 7.5778384434224790e+01 0 1 0
44 1 1.6883096098554118e-01 6.8770772426427456e+01 6.3065132613466737e+01 7.5127309770229203e+01 0 0 0
275 4 -4.6216989464222097e-01 7.1703649060878021e+01 6.4967117353089066e+01 7.2224745216405125e+01 0 0 0
265 2 -5.4683065199121683e-01 7.0889361575176821e+01 6.2441008722251084e+01 7.1794398470854418e+01 0 0 0
270 1 8.8118016158754336e-02 7.0804494009271679e+01 6.2248730677065915e+01 7.3982326747564443e+01 0 0 0
266 1 9.6835014375448419e-02 7.2750829884132699e+01 6.0967240667535016e+01 7.3810475441065321e+01 0 0 0
262 3 8.1687229196421698e-02 7.2928483454953820e+01 6.1960098440413816e+01 7.3260703553502694e+01 0 0 0
4812 1 1.7163252774130519e-01 7.6355109736295674e+01 6.2999466361136562e+01 7.4979587168143837e+01 0 0 0
271 3 -2.5189455514922569e-02 7.1883566292879550e+01 6.4054618756902045e+01 7.3459273575058646e+01 0 0 0
268 3 7.0784646763367973e-02 7.1471547185552026e+01 6.2607802472653447e+01 7.3139637909742589e+01 0 0 0
4804 3 6.2062631476470835e-02 7.6850970189733928e+01 6.3976744334436255e+01 7.4626166663396177e+01 0 0 0
4815 2 -5.7750473825392123e-01 7.5076617510219620e+01 6.5418354429079969e+01 7.6650482381586087e+01 0 0 0
4813 3 4.6769896081095985e-01 7.6320811864248085e+01 6.5151363446335765e+01 7.6723172758493519e+01 0 0 0
267 2 -5.2574175179368177e-01 7.3944331777204923e+01 6.2822908548876697e+01 7.3884673916065566e+01 0 0 0
295 3 -2.4812802400773282e-01 7.5761197976562784e+01 6.7665824652961888e+01 7.4914706388755732e+01 0 0 0
298 1 1.7089127087217945e-01 7.4816762093263947e+01 6.7238011712773741e+01 7.5376579746752370e+01 0 0 0
273 1 1.6203203120813245e-01 7.3852688033339163e+01 6.4941401154639351e+01 7.3610950859794571e+01 0 0 0
269 3 -1.7661495798011947e-02 7.3332732464148847e+01 6.4103188374449743e+01 7.4082566419086362e+01 0 0 0
272 1 1.2359041676595188e-01 7.3265464295434256e+01 6.4536413951721997e+01 7.5166257805221321e+01 0 0 0
274 1 1.0254697301235609e-01 7.1124499326769765e+01 6.4590995245070829e+01 7.4119490116569352e+01 0 0 0
1513 1 1.2695335200004115e-01 7.2191710950005699e+01 6.6917966817490196e+01 7.4320936479611490e+01 0 0 0
7609 3 -1.6765171114034003e-01 7.6165532104882061e+01 5.9040257258356689e+01 7.6629028358048316e+01 0 1 0
1512 1 1.8413216831317722e-01 7.0734656565157195e+01 6.7670608062367208e+01 7.3591972307630812e+01 0 0 0
1511 3 3.8794479708147860e-02 7.1342740157898504e+01 6.8370259048822561e+01 7.5803773498521721e+01 0 0 0
38 1 1.0139869157544254e-01 7.1205635952295779e+01 6.4024120564924544e+01 7.6743578065832224e+01 0 0 0
1516 1 1.0695596657242339e-01 7.1365378686404952e+01 6.7461390815214429e+01 7.6486982249006857e+01 0 0 0
7613 1 1.8640089337221835e-01 7.6301801843741899e+01 5.9776332540883722e+01 7.7486908379763705e+01 0 1 0
1508 3 -1.8402156111851437e-01 7.1658198584626604e+01 6.7938511700649045e+01 7.4254530557284710e+01 0 0 0
294 3 4.7664393732375887e-01 7.5682272908029276e+01 6.7904258504137346e+01 7.3394476580942779e+01 0 0 0
290 2 -5.1977985810816241e-01 7.6185781797951847e+01 6.6672643302530474e+01 7.2826652680306424e+01 0 0 0
7617 1 1.2707875871876395e-01 7.4371587659217596e+01 6.0032176253768966e+01 7.6251048742704000e+01 0 1 0
37 1 1.8594520758723213e-01 6.9828505478785374e+01 6.3182394267070180e+01 7.7509994243308569e+01 0 0 0
299 1 2.2510519851357794e-01 7.6576383487061179e+01 6.6949454834463353e+01 7.5183175219526206e+01 0 0 0
33 3 -1.8145404090983971e-01 7.0183395792324717e+01 6.4192945234687542e+01 7.7231619193078828e+01 0 0 0
1514 2 -4.4374093460682862e-01 7.0155162073470578e+01 6.9002701499132002e+01 7.5982448373514814e+01 0 0 0
7616 1 1.4517313854426162e-01 7.4392099045611303e+01 5.8770231251149397e+01 7.5152922332506606e+01 0 1 0
7612 3 3.4241044727349110e-02 7.4564293484521556e+01 5.8903059174688607e+01 7.6276324507793959e+01 0 1 0
3200 1 1.7254396724059193e-01 6.9595004837743218e+01 5.9303529605415164e+01 7.2251585664221153e+01 0 1 0
49 3 -1.8850119033895160e-01 7.0116247302883224e+01 5.9900454867788341e+01 7.7319031062164058e+01 0 0 0
4811 1 1.5259039367131799e-01 7.5886703398949692e+01 6.4283388768191671e+01 7.4026139115293560e+01 0 0 0
1517 4 -1.5583482339664659e-01 6.9304855583760954e+01 6.8565051964452437e+01 7.7419509677440189e+01 0 0 0
54 1 1.1731577100890617e-01 6.9970067178122648e+01 5.8785841860093470e+01 7.7182841469596212e+01 0 0 0
53 1 1.2760591425791834e-01 7.0452031565624722e+01 6.0285908317934769e+01 7.6284165495867484e+01 0 0 0
36 3 -1.9015354270479223e-01 6.9285497171336928e+01 6.4963955350215656e+01 7.6222633355957925e+01 0 0 0
41 1 1.0900006334317044e-01 6.9863987620509889e+01 6.5518261063794569e+01 7.5396685026892399e+01 0 0 0
48 3 2.4311876155474949e-02 6.8661782961623913e+01 6.0608800239261917e+01 7.7596060983748004e+01 0 0 0
47 2 -4.4869053078195209e-01 6.8426951231249433e+01 6.1633884045051367e+01 7.6728386671982122e+01 0 0 0
56 1 1.7230641671027547e-01 7.2148471807584258e+01 5.9842774659939842e+01 7.7964773946435471e+01 0 0 0
7611 1 2.0720814134662113e-01 7.6175663001905576e+01 5.7300059489139421e+01 7.7966788633095248e+01 0 1 0
52 3 -2.4858021460945762e-01 7.1161719755663540e+01 6.0269428797916625e+01 7.8358344063727316e+01 0 0 0
7615 2 -4.4665463447450549e-01 7.3946676558148667e+01 5.8051511088590537e+01 7.7152085053449369e+01 0 1 0
57 1 1.2444697522791499e-01 7.1388678847262298e+01 6.1403176424386778e+01 7.8452722808459271e+01 0 0 0
285 1 1.8802729742722962e-01 7.5532989339480721e+01 6.4593143374111747e+01 7.1785148615350266e+01 0 0 0
7607 3 -2.1972438620176624e-01 7.6701976637206386e+01 5.7703342690563744e+01 7.7048013740238673e+01 0 1 0
40 1 1.4005250344320647e-01 6.8705986022374233e+01 6.5827445191276965e+01 7.6663218188556044e+01 0 0 0
304 1 1.2187413399165171e-01 7.4686346441005526e+01 6.8244925275870202e+01 7.7316261323998361e+01 0 0 0
39 3 -1.7605734847829846e-01 6.8232532516441893e+01 6.3972294665173230e+01 7.5560545238278181e+01 0 0 0
279 2 -5.6433470332829394e-01 7.3310419051390042e+01 6.6671786919822608e+01 7.1909247789745763e+01 0 0 0
358 2 -4.4165960082836808e-01 6.8113417728315554e+01 6.7238410355783614e+01 7.2830105282688862e+01 0 0 0
355 3 2.8771885664728419e-02 6.7797749118996791e+01 6.8128548217810049e+01 7.3819726550621681e+01 0 0 0
162 1 1.5122529845592578e-01 6.8718935852639191e+01 6.2560840751441269e+01 7.1766659562590789e+01 0 0 0
259 1 2.9035254028566565e-01 7.4547779516183112e+01 6.2859984502623128e+01 7.1998420376669230e+01 0 0 0
236 3 4.7838066428206755e-01 7.2503193252480798e+01 5.7836225674063314e+01 7.2473846449947871e+01 0 0 0
161 1 1.5817274481055929e-01 6.8271855364276831e+01 6.4109391670421687e+01 7.2079947838114563e+01 0 0 0
65 1 2.2748233392441092e-01 7.0030037313754008e+01 5.7408266519224661e+01 8.0580520237445086e+01 0 0 0
300 3 6.5514362549547636e-02 7.5502211233770822e+01 6.9034202169701317e+01 7.7204610507792040e+01 0 0 0
3199 3 1.5762419626637946e-02 6.7882937460470089e+01 5.8015199328183044e+01 7.1676030961794837e+01 0 1 0
237 1 1.3227099593179512e-01 7.2308793305139559e+01 5.8281465081594604e+01 7.4526409936327681e+01 0 0 0
4814 3 -2.0036174252638045e-01 7.7261999288628019e+01 6.5327672480254066e+01 7.7886390374047608e+01 0 0 0
246 1 2.1748864602580628e-01 7.6512036843924577e+01 5.7532924462808907e+01 7.2420217004375630e+01 0 0 0
277 1 3.1116499116293600e-01 7.1394863199126718e+01 6.4204454886091924e+01 7.1553999957141968e+01 0 0 0
276 3 5.9596180065841731e-01 7.2809881600250364e+01 6.5566868329839210e+01 7.1526105026658527e+01 0 0 0
43 1 1.4086588767988423e-01 6.7859549902840016e+01 6.4478919547915851e+01 7.4564485273645801e+01 0 0 0
296 2 -5.5676060247121928e-01 7.5468896698496337e+01 6.9009976619781042e+01 7.2795445418938215e+01 0 0 0
31 3 -2.3816955405719964e-01 7.0369237489629597e+01 6.5058404425460651e+01 7.8521963812259443e+01 0 0 0
34 1 1.3176269436339572e-01 7.0553181026690737e+01 6.6117143798113460e+01 7.8285946654958977e+01 0 0 0
1515 1 1.1272785675244927e-01 7.2290731579796898e+01 6.8796891299002709e+01 7.6257667787038997e+01 0 0 0
359 1 1.6745752543548784e-01 6.8667373285386034e+01 6.8582963691659003e+01 7.4411757899583236e+01 0 0 0
3201 1 1.6963548232779510e-01 6.8073796206749705e+01 6.0125909784491689e+01 7.2286016164626574e+01 0 1 0
239 2 -5.4203025721702014e-01 7.3912074413968696e+01 5.7593228161527179e+01 7.2409559148561200e+01 0 0 0
1594 2 -6.6029688442454892e-01 7.3583535990995784e+01 6.8895627021159484e+01 8.3605625907474177e+01 0 0 0
3196 3 -2.1086428535757695e-01 6.8672544489578442e+01 5.9348256808152016e+01 7.1665413044894478e+01 0 1 0
240 2 -5.8202410261994919e-01 7.1655773700622092e+01 5.8210564345386537e+01 7.1587904094423379e+01 0 0 0
234 1 1.4711645916854080e-01 7.0047070255118527e+01 5.7665881628917319e+01 7.3572973499340222e+01 0 0 0
1600 1 2.9943504106943564e-01 7.3130918532685200e+01 6.8244193768358457e+01 8.3043108092765664e+01 0 0 0
1509 1 2.4702812643402799e-01 7.2704329047059929e+01 6.8506831816440510e+01 7.2514923949217348e+01 0 0 0
51 1 1.4849730018761995e-01 6.7867745167791867e+01 5.9826247415252460e+01 7.7735116494516276e+01 0 0 0
4810 2 -5.5207123777520928e-01 7.7283031073933216e+01 6.4823276950934655e+01 7.5703436357962232e+01 0 0 0
1506 3 -2.2972715424593892e-01 7.2481138532237495e+01 6.8951593341544239e+01 7.3471270082092289e+01 0 0 0
233 3 -2.4904612969444151e-01 7.2153071793154766e+01 5.7417842246067174e+01 7.3870970840859258e+01 0 0 0
297 3 -2.0428265300312667e-01 7.5936237750073971e+01 6.9003933523028365e+01 7.5646076414946236e+01 0 0 0
1525 1 1.5501486826062844e-01 6.8117895007894731e+01 6.7441836685917920e+01 7.9556130860090235e+01 0 0 0
4827 3 -2.1040990234071014e-01 7.7289290696423649e+01 6.7651626097294809e+01 8.2437375240599991e+01 0 0 0
122 2 -4.6204945219304944e-01 7.2522764105745637e+01 6.8852998901826993e+01 8.0557751091753019e+01 0 0 0
35 1 2.0191194618545502e-01 7.1280377785059429e+01 6.4723364142143907e+01 7.9085952146339082e+01 0 0 0
70 2 -5.8534919849822409e-01 6.8132788902397508e+01 5.7371753250355908e+01 8.1284583839770150e+01 0 0 0
72 1 1.4375536707967312e-01 6.8233180739156580e+01 5.7949213609384010e+01 8.3441499685164032e+01 0 0 0
119 3 4.7697197577537508e-02 7.2759616413978634e+01 6.7523495267336600e+01 8.0480631856897148e+01 0 0 0
583 3 1.8660202734829753e-02 6.9740923072481976e+01 6.5491937061191791e+01 8.4685424660715810e+01 0 0 0
26 2 -4.2524258018289812e-01 6.7392686260300337e+01 6.4415842925219167e+01 8.0952112180408648e+01 0 0 0
123 1 1.2680517887831708e-01 7.2068559404309951e+01 6.6767299022907423e+01 8.1002679983404121e+01 0 0 0
587 1 1.6694603567695054e-01 7.1942932345688646e+01 6.5594609056094242e+01 8.4799247692865421e+01 0 0 0
250 1 1.4069635590979335e-01 7.7377115241564596e+01 5.9438153508511675e+01 7.1810930821043002e+01 0 0 0
1530 3 4.7242160386066726e-02 6.7621840280950110e+01 6.8146518265321831e+01 8.3095562061850003e+01 0 0 0
1532 1 1.4014425628084076e-01 6.9964078006207941e+01 6.8339421258504430e+01 8.2726158573512947e+01 0 0 0
1521 3 -1.5902635171995083e-01 6.7794068976929864e+01 6.8419860919007732e+01 7.9985674420878397e+01 0 0 0
459 3 7.4760537095902246e-02 7.6756797770671668e+01 6.5021373177017892e+01 8.4985642636818810e+01 0 0 0
588 1 1.2148015875575478e-01 7.1404357114528452e+01 6.6742173896649433e+01 8.3589709735479587e+01 0 0 0
1533 4 -2.5879390548781289e-01 6.7471047000594538e+01 6.8636454167052449e+01 8.4154217246785265e+01 0 0 0
18 3 -2.2903957299311567e-01 6.7491098878186321e+01 6.0775430116362081e+01 8.1767608353503149e+01 0 0 0
20 3 -1.8695649026850036e-01 6.7374614002745915e+01 6.2238062499510377e+01 8.2233845721585865e+01 0 0 0
1510 1 1.7514137321822759e-01 7.3560083540480619e+01 6.9056384708731017e+01 7.3837158015073669e+01 0 0 0
121 1 1.6446632113743953e-01 7.4766454854370011e+01 6.7842525957491489e+01 8.1552974946154265e+01 0 0 0
118 1 1.6388166254487091e-01 7.5489060789837438e+01 6.5436370010023296e+01 8.1748412538002640e+01 0 0 0
50 1 1.6362920306376091e-01 6.8655580276545734e+01 6.0973298066043832e+01 7.8627505584139570e+01 0 0 0
464 1 1.8767841716396061e-01 7.7048851848886088e+01 6.1699498653292601e+01 8.5338818448676790e+01 0 0 0
1531 1 1.5644906886157905e-01 6.9189865823137126e+01 6.6947895091538598e+01 8.1965828981195315e+01 0 0 0
108 1 1.8191698946812934e-01 7.4313857113757351e+01 6.2005819217565900e+01 8.5611212207166787e+01 0 0 0
55 3 4.8597968320727369e-01 7.0927234455365749e+01 5.9764306147796489e+01 7.9761422398837681e+01 0 0 0
473 3 -2.8889634781045042e-02 7.4636871879424845e+01 6.2072410599558502e+01 7.8836431798764394e+01 0 0 0
1524 3 -1.7390909211972946e-01 6.8836972451093715e+01 6.8921792000813724e+01 8.0956096756821523e+01 0 0 0
95 3 5.6100577188171075e-01 7.3391367332425133e+01 5.9196868037674236e+01 8.4212940957703793e+01 0 0 0
472 3 -2.2353941682575432e-01 7.5147940949050607e+01 6.0162900626450984e+01 8.0204778971578520e+01 0 0 0
582 4 -1.2730267720637561e-01 6.8824579425948741e+01 6.5639439077340128e+01 8.4026978260717797e+01 0 0 0
113 3 5.1543839894443089e-01 7.3542373577867792e+01 6.4649165122156788e+01 8.1086947679874285e+01 0 0 0
462 3 1.3721570743089561e-02 7.7167250024078598e+01 6.3654014667924329e+01 8.4407265407283973e+01 0 0 0
585 1 1.8477540375132356e-01 6.9636429463170217e+01 6.4749013630440061e+01 8.5520753403641123e+01 0 0 0
21 1 1.8003142662717903e-01 6.8219666349445092e+01 6.0231313666376025e+01 8.2451208966577809e+01 0 0 0
32 1 1.7015790246100235e-01 6.8074700929217187e+01 6.5255517339008122e+01 7.9032092621542262e+01 0 0 0
63 1 1.2980304602703108e-01 7.2889835316420758e+01 5.7761417297492734e+01 8.1752245637450386e+01 0 0 0
25 1 1.7360963364999740e-01 6.8394949144577083e+01 6.2660077147034585e+01 8.2594999590177125e+01 0 0 0
466 4 -4.2152689082125749e-01 7.6097744051948638e+01 6.2980625673934959e+01 8.3540145652603456e+01 0 0 0
590 1 1.7521452049389039e-01 7.0539607918597540e+01 6.8182295538873205e+01 8.5673942152797892e+01 0 0 0
111 1 1.3637616623281354e-01 7.1192971809072219e+01 6.3351087936109252e+01 8.1534762169344745e+01 0 0 0
475 3 5.5190693929968206e-02 7.6104279428930980e+01 5.9286527478652488e+01 8.1095173083526419e+01 0 0 0
456 2 -4.7850910711105921e-01 7.5331802988414623e+01 6.5220289750731467e+01 8.4675019842295285e+01 0 0 0
579 2 -4.3320608338094424e-01 6.7777962725851765e+01 6.4373411743983155e+01 8.4722421722996842e+01 0 0 0
4820 1 1.6513880002795661e-01 7.6675974794709589e+01 6.3665033783646805e+01 7.9201928645293833e+01 0 0 0
584 3 -2.2349394358759658e-01 7.1088676646350919e+01 6.6273508272714096e+01 8.4596012593698276e+01 0 0 0
69 1 1.4610671167735578e-01 7.0401377618569398e+01 5.8113864108522172e+01 8.3318129348593772e+01 0 0 0
4817 1 1.7825412985120440e-01 7.6765350825217354e+01 6.6021588580133354e+01 7.8633970211866810e+01 0 0 0
468 1 3.1472204067424026e-01 7.5219141666203427e+01 6.3629907653837975e+01 8.3490871606121217e+01 0 0 0
124 1 1.5880862362710235e-01 7.2683713447741951e+01 6.7018805635551672e+01 7.9488875222968119e+01 0 0 0
103 3 2.3436796618241992e-02 7.2155117796224417e+01 6.2993344685575217e+01 8.2080860143187749e+01 0 0 0
109 2 -5.5117817819045167e-01 7.3197829938492461e+01 6.4022571241147006e+01 8.2317643349097466e+01 0 0 0
482 1 1.8311349095118870e-01 7.6748524714241398e+01 5.9923640150772641e+01 8.1772218048551380e+01 0 0 0
479 1 1.0905000927792714e-01 7.3606108731075565e+01 6.1601648399477483e+01 7.9011919652590166e+01 0 0 0
117 1 1.8999174155357956e-01 7.4242317353477219e+01 6.5917630696271701e+01 8.2746038784172214e+01 0 0 0
4829 1 1.3982533666461536e-01 7.6273716195104356e+01 6.7228375898032226e+01 8.2625079155598229e+01 0 0 0
467 3 5.9740144504963610e-01 7.6329110157679565e+01 6.2446712310408557e+01 8.2205365110310993e+01 0 0 0
115 2 -6.1101911847844714e-01 7.3103631085552578e+01 6.4787833333578050e+01 7.9894927099933255e+01 0 0 0
30 3 1.8397243616542425e-02 6.9054228027586390e+01 6.4811614815128010e+01 7.9412423678591026e+01 0 0 0
104 1 1.5037942883500430e-01 7.0713026333632527e+01 6.1952032984020981e+01 8.3405952653534328e+01 0 0 0
99 3 1.3856612286446918e-01 7.2835039979982085e+01 6.1618763418509509e+01 8.4034804569341986e+01 0 0 0
29 4 -1.2310994803186567e-01 6.9035168426306726e+01 6.4286928306846391e+01 8.0414811890807115e+01 0 0 0
59 2 -5.7375110087669368e-01 7.0047314109169776e+01 6.0291563422432645e+01 8.0521469169483339e+01 0 0 0
483 1 1.6039410703627832e-01 7.5409056575853057e+01 5.8999973740597632e+01 8.1905195083478091e+01 0 0 0
481 2 -5.8689673273409770e-01 7.6778229100116576e+01 5.8280839895198255e+01 8.0361087790333571e+01 0 0 0
22 1 2.1987484569032695e-01 6.8079035912012927e+01 6.0811234306719228e+01 8.0761978407248563e+01 0 0 0
1527 3 -1.9608684743134525e-01 6.8983324520776634e+01 6.8027025124834893e+01 8.2202735010333271e+01 0 0 0
110 1 1.4374869501066492e-01 7.2335841470597018e+01 6.2108755748776723e+01 8.1352697532714529e+01 0 0 0
105 1 2.1452012093857642e-01 7.1579854146851659e+01 6.3417146727311149e+01 8.4121990397571778e+01 0 0 0
480 1 1.9093205507068406e-01 7.4279511859186201e+01 6.3121107631611011e+01 7.9100090249288343e+01 0 0 0
58 2 -5.8242001247246333e-01 7.1972280276313498e+01 5.8843231189488385e+01 8.0014789331791576e+01 0 0 0
60 3 3.6595635057521926e-02 7.1893677831190260e+01 5.8260275031521360e+01 8.1314717121146543e+01 0 0 0
114 3 -2.4018768043477093e-01 7.4403273821291506e+01 6.5781176864210266e+01 8.1632505007653165e+01 0 0 0
102 1 1.9263700001700845e-01 7.3717956146555437e+01 6.1936139476517496e+01 8.3425314217812144e+01 0 0 0
62 1 1.7702991227214254e-01 7.1754962061613625e+01 5.9023434600966524e+01 8.2139394811093595e+01 0 0 0
100 3 -1.9794574358661612e-01 7.1711420079412989e+01 6.2507787908320324e+01 8.3446520838827041e+01 0 0 0
477 1 1.8589698408921507e-01 7.5095890495569364e+01 5.9673669762980005e+01 7.9185003108030060e+01 0 0 0
97 2 -5.9613881465125906e-01 7.2415499366749955e+01 6.0185340651154377e+01 8.3984378911377760e+01 0 0 0
120 1 1.7630395486150421e-01 7.4961929786498175e+01 6.7172763803557473e+01 7.9960649865649856e+01 0 0 0
476 1 1.7525878664043124e-01 7.4054301830596472e+01 6.0152384536999314e+01 8.0544611982966202e+01 0 0 0
96 1 3.1040855563466990e-01 7.2046310464780774e+01 5.7900386443634360e+01 8.4976296991644304e+01 0 0 0
469 2 -5.6287020308785118e-01 7.5282618339346357e+01 6.2366477407465439e+01 8.1320899948215285e+01 0 0 0
101 3 1.7692807282011256e-02 7.3208145189331447e+01 6.2148040832299998e+01 8.5460254957363986e+01 0 0 0
98 2 -5.4156430241380338e-01 7.4630305310691000e+01 5.9396712073362984e+01 8.4364780980358688e+01 0 0 0
471 3 1.0133295130246885e-01 7.5556897883191581e+01 6.1568057278951606e+01 8.0005383095306271e+01 0 0 0
116 3 -1.8323696846483661e-01 7.4316422865736030e+01 6.7082181857926344e+01 8.0866917766905942e+01 0 0 0
474 1 1.4865284522308780e-01 7.6639244069184414e+01 6.1531682547992958e+01 7.9674103581739544e+01 0 0 0
94 4 -4.3448658686507391e-01 7.2900020043419715e+01 5.7806959824007173e+01 8.4273943978741841e+01 0 0 0
364 1 1.8957076635112605e-01 6.9427045757863738e+01 6.6278000099331763e+01 7.1465802199352623e+01 0 0 0
643 3 -1.1223799431543880e-02 7.6291822453384412e+01 5.9601677675559785e+01 8.9556680243731122e+01 0 0 0
649 1 3.0281481024599960e-01 7.5315837665199808e+01 5.9232998180536796e+01 9.1382149351515281e+01 0 0 0
637 2 -4.7966078446284854e-01 7.4324375834546231e+01 5.8121303653614746e+01 9.0049582081099359e+01 0 0 0
640 3 7.9291289984219235e-02 7.5132648353138947e+01 5.8773815511493176e+01 8.8967724118180826e+01 0 0 0
633 3 1.5156775158200811e-02 7.3098574374374323e+01 5.8858429266545336e+01 9.0164021729213985e+01 0 0 0
630 3 -8.3774629033106125e-03 7.3043931037546230e+01 5.9947396537702161e+01 8.9022176112561425e+01 0 0 0
641 3 1.7187544152271351e-02 7.6291158296380914e+01 6.1029930834694561e+01 8.8863556348854686e+01 0 0 0
647 4 -4.5167339839757603e-01 7.6169537157293831e+01 5.9785085074825922e+01 9.1077788477902686e+01 0 0 0
648 3 5.5482024940078745e-01 7.7182526906271065e+01 5.9124205773964754e+01 9.1895962409580775e+01 0 0 0
645 1 2.0135140774058591e-01 7.6373087441356518e+01 6.1741762668120366e+01 8.9698338659346220e+01 0 0 0
628 4 -4.7216834447440892e-01 7.2805707727351674e+01 6.1331840448936646e+01 8.9658601036767081e+01 0 0 0
635 1 1.6405410268635520e-01 7.2752015334372885e+01 5.9348332509293186e+01 9.1117932640966359e+01 0 0 0
631 1 3.1129469025910572e-01 7.3640680894642117e+01 6.1906698529775475e+01 8.9448531300708936e+01 0 0 0
626 3 5.9291508212410748e-01 7.1843018196488615e+01 6.2179409593883761e+01 8.8960679734029810e+01 0 0 0
634 3 5.1512625299317147e-02 7.4311761804505494e+01 5.9881424989873203e+01 8.8172903661940481e+01 0 0 0
632 1 1.6188038747689304e-01 7.2157130800035944e+01 5.9809044859907090e+01 8.8380825808749321e+01 0 0 0
639 2 -4.8295794785054186e-01 7.5100150308746521e+01 6.1216550133437579e+01 8.8132197239485834e+01 0 0 0
642 1 1.0214771971583618e-01 7.5580283924632255e+01 5.8058714312857688e+01 8.8207435500118336e+01 0 0 0
390 3 -2.2507813577767297e-01 7.1631764226349929e+01 6.5902042360661824e+01 9.2059376061592658e+01 0 0 0
636 1 1.2003043642833891e-01 7.2136772008283913e+01 5.8283663441627972e+01 9.0086415316193978e+01 0 0 0
433 3 -2.2475705695161796e-01 7.4331290532526069e+01 6.2475448391377185e+01 9.2188152654977884e+01 0 0 0
438 1 1.8616038837257792e-01 7.3257844391304957e+01 6.2565316539331491e+01 9.1904648395461223e+01 0 0 0
594 1 1.3706210652080378e-01 7.1985173776102314e+01 6.6277385945319494e+01 8.7638513202438276e+01 0 0 0
439 3 -2.6005145197119529e-02 7.6611231941352656e+01 6.3521216119281277e+01 9.2449834393794987e+01 0 0 0
629 2 -5.8285969374162350e-01 7.2059563900865982e+01 6.3415424623085570e+01 8.8820824250101069e+01 0 0 0
440 2 -6.1452515552342346e-01 7.5472828065633436e+01 6.3485378683522313e+01 9.0225140961037212e+01 0 0 0
436 3 1.0684485175320006e-01 7.5247375762732773e+01 6.3652980162497272e+01 9.1735796695169768e+01 0 0 0
450 1 3.2349640588527956e-01 7.5425947659498732e+01 6.3277184411574076e+01 8.7950163968774774e+01 0 0 0
448 2 -5.7962086856370576e-01 7.4086737715880886e+01 6.5350502506915902e+01 8.9899942528941452e+01 0 0 0
445 3 6.2008201296887488e-01 7.4731487624888032e+01 6.4368759469282509e+01 8.9447741416986830e+01 0 0 0
447 4 -4.1225401691366170e-01 7.4834937630821486e+01 6.4191920076754613e+01 8.7972877934514102e+01 0 0 0
451 1 1.2809607914066196e-01 7.5661939713515807e+01 6.6062565499225286e+01 8.7814212863472036e+01 0 0 0
1610 2 -4.3759624656737894e-01 7.6798438575037579e+01 6.6771708914844879e+01 9.0277146142998689e+01 0 0 0
449 3 5.3859463845440034e-03 7.5525849207983640e+01 6.5199965617555051e+01 8.7107407037961693e+01 0 0 0
1607 3 3.1195121510528067e-02 7.6336860159467619e+01 6.8048371801961139e+01 9.0448677142700859e+01 0 0 0
1608 1 2.0433465027277498e-01 7.4578766050782747e+01 6.7099526787318538e+01 9.1461928644947548e+01 0 0 0
441 1 1.5534515392288831e-01 7.4775224247613195e+01 6.4586048211655680e+01 9.2151713940643930e+01 0 0 0
393 1 1.3985940574247752e-01 7.1612819157767831e+01 6.6901115478808165e+01 9.1527105241523643e+01 0 0 0
589 3 -1.8346565134463028e-01 7.1005550497742675e+01 6.6682743716194622e+01 8.7225949623911717e+01 0 0 0
396 1 2.2214960066696704e-01 7.1771176160538246e+01 6.5045344146944785e+01 9.0084219898669929e+01 0 0 0
593 1 1.7304416475969417e-01 7.0490478811070943e+01 6.5625723354275820e+01 8.7178004854369419e+01 0 0 0
621 2 -5.9612386178210686e-01 7.0673853636533053e+01 6.1539722487966678e+01 8.8553445101683792e+01 0 0 0
392 3 -1.8210053453425532e-01 7.1151863731574636e+01 6.4891045726825510e+01 9.1033543610603957e+01 0 0 0
422 1 1.4407087611287403e-01 7.1193560311747518e+01 6.0645800915635768e+01 9.1521344841669091e+01 0 0 0
1604 3 -1.8049415495885923e-01 7.4788990663259668e+01 6.8031744122012981e+01 9.0977971576217413e+01 0 0 0
592 3 -1.8356095416040641e-01 7.0315189512163712e+01 6.7798937147962477e+01 8.8109552339273449e+01 0 0 0
596 1 1.6568769526191360e-01 7.0325675850122167e+01 6.7525451062370095e+01 8.9200810092050617e+01 0 0 0
420 3 3.2806222650367908e-02 7.0104725840109325e+01 6.0717408769595188e+01 9.1799133463784841e+01 0 0 0
458 2 -4.6734031433410739e-01 7.7232176819299596e+01 6.3458517019677629e+01 8.6833912030591691e+01 0 0 0
423 1 1.4852111649948449e-01 6.9687555835251032e+01 6.1442926801006635e+01 9.1006344032706352e+01 0 0 0
395 3 3.9874605493951693e-02 6.9546305745758389e+01 6.5028550997208512e+01 9.0785408213228990e+01 0 0 0
617 3 1.3250410724370162e-01 6.9830516253162955e+01 6.2265154071542412e+01 8.7567408371155906e+01 0 0 0
399 1 1.6529654346210590e-01 6.9350764187357072e+01 6.5234451469092434e+01 8.9706403802984454e+01 0 0 0
638 1 1.5314531848253388e-01 7.4004044260525532e+01 5.9445829652310849e+01 8.7230077390980824e+01 0 0 0
419 2 -4.5670702571671828e-01 6.9383095646068369e+01 5.9579077496073531e+01 9.2014274740090087e+01 0 0 0
453 3 8.5938677006235933e-02 7.6958892045446930e+01 6.4883897608560531e+01 8.6536571846697640e+01 0 0 0
622 1 1.6180411888541035e-01 7.0246310419719592e+01 6.3009927507616375e+01 8.6878040519276738e+01 0 0 0
400 1 1.5862363628265264e-01 6.9263054117864570e+01 6.6069145815536146e+01 9.1122010586138430e+01 0 0 0
616 1 1.2512494484663195e-01 6.8881714779939131e+01 5.9791238988781480e+01 8.8100067441890729e+01 0 0 0
595 3 3.2420745690062709e-02 6.8851413006674434e+01 6.7703543022553774e+01 8.7533294728732358e+01 0 0 0
614 3 -2.3839126709647721e-01 6.9281577542136048e+01 6.1210427840814155e+01 8.6559512750009887e+01 0 0 0
112 1 3.5597373628233747e-01 7.2767781851660885e+01 6.3692790186180829e+01 8.6725422347963956e+01 0 0 0
1606 1 1.9631289243182801e-01 7.4075463287510289e+01 6.7357241375330204e+01 8.9114723311605360e+01 0 0 0
613 3 5.5614616964164698e-02 6.8393172185985279e+01 6.0026830074946574e+01 8.7105189930286883e+01 0 0 0
398 2 -4.6632044485256685e-01 6.8860511429815048e+01 6.3974954350218084e+01 9.1316226957723600e+01 0 0 0
437 1 1.8836636458793907e-01 7.4573314828301420e+01 6.1530119987762170e+01 9.1701490611522686e+01 0 0 0
620 3 -1.3729721782161794e-02 6.8595081867792686e+01 6.3022732455087308e+01 8.8118487221063816e+01 0 0 0
625 1 1.7825047132620053e-01 6.8577520356067978e+01 6.2955530032768372e+01 8.9272946482082773e+01 0 0 0
1535 2 -4.1665133494440032e-01 6.8274522579333365e+01 6.8169471286421796e+01 8.9735256311296055e+01 0 0 0
623 2 -6.5884745955285895e-01 6.8552226641004651e+01 6.4401226746178423e+01 8.7627939201804850e+01 0 0 0
1605 1 1.5025547392853481e-01 7.2843059371574029e+01 6.8206405298446242e+01 9.0091168909756234e+01 0 0 0
599 1 1.4141322067017745e-01 6.8659300826061141e+01 6.7414061908488549e+01 8.6458285322857250e+01 0 0 0
1602 3 -2.4705615176097998e-01 7.3920587197675474e+01 6.8258185755178701e+01 8.9737921307718352e+01 0 0 0
597 1 1.8644168963828184e-01 7.0869530521523103e+01 6.8789675599982360e+01 8.7948036496135771e+01 0 0 0
1611 1 1.6994079690298985e-01 7.6903735121886157e+01 6.8629457282714128e+01 9.1232006338802293e+01 0 0 0
443 1 1.0968672505971097e-01 7.6654728777275110e+01 6.2488204337308147e+01 9.2900942022841861e+01 0 0 0
598 4 -1.4074491022760297e-01 6.7854581530621189e+01 6.7721620588583704e+01 8.8066491551395742e+01 0 0 0
107 1 1.5222523444847336e-01 7.3031790768063928e+01 6.1255778163241587e+01 8.6168203396997669e+01 0 0 0
624 1 1.5278609672001908e-01 6.7722449953240641e+01 6.2351233097257236e+01 8.7872029292055402e+01 0 0 0
418 1 1.5479597994967983e-01 6.8253356051775256e+01 5.9140698275190637e+01 9.0396710673144298e+01 0 0 0
417 4 -1.9090298415041018e-01 6.7701685615878660e+01 5.9988612626242514e+01 9.2005213476151226e+01 0 0 0
644 1 1.1754659409322139e-01 7.7332025841101910e+01 6.1080991146674961e+01 8.8329106498492862e+01 0 0 0
615 1 1.6148423890265767e-01 6.8778850554004393e+01 5.9100391960707725e+01 8.6536999534652708e+01 0 0 0
444 1 1.5079659490782624e-01 7.7337474592493678e+01 6.3236547608542452e+01 9.1651490335395678e+01 0 0 0
1916 1 1.8075899776061383e-01 7.1241554359833145e+01 6.8853760351754175e+01 9.2344751115697420e+01 0 0 0
394 1 1.8079078337737028e-01 7.2696192644388219e+01 6.5640406017228187e+01 9.2337842059733731e+01 0 0 0
651 2 -5.2290697140796860e-01 7.6890530058786709e+01 5.8011847243563174e+01 9.2444400717706770e+01 0 0 0
414 3 4.6119753559558552e-02 6.7393907942679334e+01 5.9639387861663558e+01 9.0968627516969889e+01 0 0 0
397 1 1.7911081867999676e-01 7.1221660515948429e+01 6.3793017949810647e+01 9.1342190182825675e+01 0 0 0
646 1 1.5325969517281374e-01 7.7315784831363246e+01 5.9105613730950537e+01 8.9391156611688373e+01 0 0 0
404 1 1.5993048696891751e-01 6.7478550478577858e+01 6.2358013422786762e+01 9.1662322034582104e+01 0 0 0
455 1 8.5806338811209859e-02 7.4583169880238827e+01 6.6814176113516353e+01 8.6064583105084651e+01 0 0 0
627 1 3.3073280583694642e-01 6.7667749368925470e+01 6.4755684821048291e+01 8.7615494455634320e+01 0 0 0
8343 1 1.6884852547002147e-01 7.6217186878209532e+01 5.7934637142977572e+01 9.5792766469303729e+01 0 1 0
84 2 -5.0426453486329914e-01 7.2572740752402638e+01 5.7449535707095237e+01 8.6821892818711561e+01 0 0 0
1900 1 1.9697449695119923e-01 7.3572129677259554e+01 6.6468091947562911e+01 9.8197790574375063e+01 0 0 0
106 2 -6.4988231906503868e-01 7.2655350161437866e+01 6.3446281709583403e+01 8.5747424848413985e+01 0 0 0
446 1 3.3851516849241098e-01 7.6806880777565254e+01 6.5425996749521588e+01 9.2651450334513598e+01 0 0 0