LAMMPS data file via write_data, version 23 Jun 2022, timestep = 1000090

8928 atoms
4 atom types

58.36925068984581 116.83074931017359 xlo xhi
58.66827365350616 91.3317263465183 ylo yhi
78.01785429462609 121.98214570536535 zlo zhi

Masses

1 1.008
2 15.999
3 12.011
4 14.007

Atoms # charge/kk

26 2 -4.2353603194934397e-01 6.3188180792634085e+01 6.7951373422959676e+01 8.5523632390693578e+01 0 0 0
37 1 1.7132536853391395e-01 6.4156527369636819e+01 6.5360026292515968e+01 8.1810876000525468e+01 0 0 0
33 3 -1.7757159026934297e-01 6.4223650814584829e+01 6.6394107297776770e+01 8.1314726095204932e+01 0 0 0
57 1 1.8343230425162360e-01 6.4707516795812296e+01 6.2446694598803461e+01 7.9742245785438456e+01 0 0 0
49 3 -1.7339359083224110e-01 6.3456680713282097e+01 6.0835999538600184e+01 8.0337822850595273e+01 0 0 0
29 4 -1.7447937667934471e-01 6.3646726637600821e+01 6.8399469675581059e+01 8.3938168004778191e+01 0 0 0
69 1 1.3812605106476947e-01 6.4966111133658231e+01 6.0491112152647375e+01 8.6383600756726565e+01 0 0 0
583 3 4.2570934262894780e-02 6.3843986950385080e+01 6.8938689481619534e+01 8.7854671763307081e+01 0 0 0
40 1 1.2881071775700040e-01 6.2396375601170867e+01 6.7341953178437876e+01 8.1855290183517226e+01 0 0 0
25 1 1.7728896389856508e-01 6.3675200036434759e+01 6.5671155387497038e+01 8.6695963116394054e+01 0 0 0
67 3 -7.3374579603473532e-03 6.2949992188114940e+01 6.0465893108177781e+01 8.5741581699129000e+01 0 0 0
52 3 -2.2709017815343510e-01 6.4814530847259093e+01 6.1476905459763543e+01 8.0266243480603720e+01 0 0 0
54 1 1.5685637235308855e-01 6.3620113695093799e+01 5.9789263586850055e+01 8.0896053065371646e+01 0 0 0
30 3 1.4187008933155505e-02 6.4274433507600790e+01 6.7547015309690664e+01 8.3523610944447924e+01 0 0 0
32 1 1.3297110332192430e-01 6.4479106390379201e+01 6.6684655272352416e+01 8.4160045835174046e+01 0 0 0
64 3 7.9954763861210171e-02 6.4314472133705067e+01 5.9738012247955517e+01 8.5838729590475737e+01 0 0 0
20 3 -1.8460224423170493e-01 6.2645887291033667e+01 6.5637365990814445e+01 8.6257252788977056e+01 0 0 0
21 1 1.4789152525071991e-01 6.2684498544786443e+01 6.3513637776619539e+01 8.5835943670321541e+01 0 0 0
22 1 1.5208961280689193e-01 6.2877578827286023e+01 6.4413314005065402e+01 8.4356336643101187e+01 0 0 0
41 1 1.8553765587163490e-01 6.2813764183036241e+01 6.7741785068964546e+01 8.0270501947068766e+01 0 0 0
53 1 1.4499357732529553e-01 6.3074819103245403e+01 6.0524167959744780e+01 7.9325550228572212e+01 0 0 0
36 3 -1.8668145383567650e-01 6.2807395685332125e+01 6.6789225204808844e+01 8.0936781774197641e+01 0 0 0
50 1 1.7374538360471020e-01 6.2276295131195290e+01 6.1241479800320299e+01 8.2174838894283198e+01 0 0 0
18 3 -2.7004279732865361e-01 6.2345275745559519e+01 6.4471199962761958e+01 8.5362200490499575e+01 0 0 0
23 3 4.3581787398561202e-02 6.2143669733960401e+01 6.7059726578357356e+01 8.5503413296509237e+01 0 0 0
48 3 4.4965693654036999e-02 6.2353302348965741e+01 6.1671357363212771e+01 8.1156806936632236e+01 0 0 0
72 1 1.4787491938661959e-01 6.2928572995219049e+01 6.1119252123509874e+01 8.6624040784559881e+01 0 0 0
51 1 1.5488219512490098e-01 6.1339147491424470e+01 6.1240805613447641e+01 8.0863127563297013e+01 0 0 0
44 1 1.8472670303347938e-01 6.2269461389847677e+01 6.4954428046773828e+01 7.9790668591315693e+01 0 0 0
70 2 -6.4447550845947632e-01 6.2637964736879553e+01 6.0926857287340916e+01 8.4378998871965806e+01 0 0 0
47 2 -4.0535060065143874e-01 6.2361994116223940e+01 6.3030740441140949e+01 8.1010142655353022e+01 0 0 0
27 1 1.5323975175760088e-01 6.1209447665868083e+01 6.7397799231266333e+01 8.6079242214906017e+01 0 0 0
39 3 -1.8476554652350155e-01 6.1793635584925077e+01 6.5622380062116846e+01 8.0535529148513660e+01 0 0 0
28 1 1.3549212017574408e-01 6.1570653380846402e+01 6.6751709125862433e+01 8.4564634418035084e+01 0 0 0
45 4 -7.8609657107096789e-02 6.1500790140413017e+01 6.3781957218015009e+01 8.2146489327151571e+01 0 0 0
42 3 5.0860363610670620e-03 6.1347692293862451e+01 6.4878798731238504e+01 8.1839317252445809e+01 0 0 0
74 1 3.5154244989492239e-01 6.2244958185738298e+01 6.1833975161081121e+01 8.4419484366915057e+01 0 0 0
151 2 -5.6731259149541768e-01 6.0300851083358801e+01 6.3710424563282729e+01 7.8591995935983334e+01 0 0 0
43 1 1.6185459104658340e-01 6.0876511789726713e+01 6.5984205163689680e+01 8.0009600938555806e+01 0 0 0
46 1 1.0925469536304207e-01 6.0873002288139375e+01 6.5535685572753295e+01 8.2628756986657308e+01 0 0 0
24 1 1.5665449478405469e-01 6.2025999974874289e+01 6.5489620614743501e+01 8.7188416034910205e+01 0 0 0
355 3 2.4230067110934284e-02 6.0327380955438990e+01 6.8785246891218080e+01 7.8760197059907554e+01 0 0 0
61 3 -1.8873506893002470e-01 6.4793255042536885e+01 5.9466542326165460e+01 8.4424636764873469e+01 0 0 0
65 1 2.1533479980316936e-01 6.3912029377560081e+01 5.9060303128405764e+01 8.3865252431129264e+01 0 0 0
17 3 4.7666868316933098e-01 6.0822302862598370e+01 6.4440296790704295e+01 8.5154004412620068e+01 0 0 0
14 2 -5.7369924499208635e-01 6.0514940185358114e+01 6.3126646313148470e+01 8.4754003589193616e+01 0 0 0
619 1 1.4165292344564401e-01 6.3427867196007178e+01 6.2346010971706946e+01 8.7866363865692094e+01 0 0 0
11 1 2.1965941302935649e-01 5.9649311862767902e+01 6.1907077184078794e+01 8.2806871045581985e+01 0 0 0
149 3 6.0026845043257704e-01 5.9257884368107604e+01 6.2872010088947874e+01 7.9040967539729962e+01 0 0 0
19 2 -5.9987104177002415e-01 5.9985012396363302e+01 6.5370133810393085e+01 8.5389051547008549e+01 0 0 0
609 1 1.9513819945844568e-01 5.9596392456580311e+01 6.4169354589695445e+01 8.7173401698692047e+01 0 0 0
605 3 -2.5161380390066407e-01 5.9507367665531753e+01 6.3594101189354362e+01 8.8189504433786368e+01 0 0 0
352 3 -1.9303117931216990e-01 5.8763817215994365e+01 6.8426043296780833e+01 7.9246955760132678e+01 0 0 0
350 3 -2.5825416854197891e-01 5.8605818211911398e+01 6.8935440109713539e+01 8.0656544486539929e+01 0 0 0
71 1 1.6637632043427802e-01 6.2195652589323750e+01 5.9719444617520736e+01 8.6233713022711370e+01 0 0 0
216 1 1.6367007314987622e-01 5.9861414368187113e+01 6.0114189975247093e+01 8.4766315829944247e+01 0 0 0
76 2 -6.0231605959466905e-01 6.3525863994582707e+01 5.9381491270337328e+01 8.8497831863408535e+01 0 0 0
584 3 -2.1118080969171005e-01 6.5348138934659232e+01 6.8580053876719887e+01 8.7529702235472186e+01 0 0 0
31 3 -2.3526054886204040e-01 6.4960803994762628e+01 6.7528353067805355e+01 8.2079113738770346e+01 0 0 0
152 2 -5.1391154065870814e-01 5.9133836416868697e+01 6.1661972040557252e+01 7.8667265961213005e+01 0 0 0
353 1 1.3360989233492079e-01 5.9217436267209003e+01 6.8342301568854424e+01 8.1386391457877551e+01 0 0 0
358 2 -4.5404734672858932e-01 6.0941406239407748e+01 6.7680513579872198e+01 7.8241503632336688e+01 0 0 0
582 4 -9.6514879642782145e-02 6.3111860591145302e+01 6.8155479949443617e+01 8.8264657619902266e+01 0 0 0
162 1 1.7133686357944916e-01 6.2593997458605877e+01 6.3373255992592910e+01 7.8802600498257235e+01 0 0 0
612 2 -5.7449449258015717e-01 6.0929151668583060e+01 6.1520178266303766e+01 8.7688482378949971e+01 0 0 0
608 3 4.8779116316619497e-01 6.0733650970400298e+01 6.2655611418398671e+01 8.8243728405929957e+01 0 0 0
2 2 -6.6257010889214296e-01 5.9073538047274070e+01 6.0216144412437444e+01 8.1807365888998234e+01 0 0 0
623 2 -6.8614241817050969e-01 6.5342477252431408e+01 6.5737342869417802e+01 8.8329638335252966e+01 0 0 0
10 3 3.9029073190257904e-02 5.9096246027378434e+01 6.2915629112323373e+01 8.4642606232768031e+01 0 0 0
1513 1 1.6180929948762984e-01 6.4527375597174270e+01 6.8443496706324154e+01 7.8735436297788297e+01 0 0 0
93 1 1.7785647898931348e-01 6.8911030138305705e+01 5.8760585454828828e+01 8.7527946210777756e+01 0 0 0
580 1 1.6526258374887778e-01 6.0095660208794264e+01 6.7430617644619389e+01 8.8383236111802844e+01 0 0 0
34 1 1.5513338401069277e-01 6.4824437905541785e+01 6.8479725330828700e+01 8.1551730644568423e+01 0 0 0
38 1 1.3513166346060929e-01 6.4842056159410333e+01 6.6208849774567511e+01 8.0384565532029967e+01 0 0 0
588 1 1.4538597468770015e-01 6.5658012372758691e+01 6.9037341551047433e+01 8.6548302469628439e+01 0 0 0
579 2 -4.4029150903865300e-01 6.1603155657650937e+01 6.8955991931663874e+01 8.8492890320027328e+01 0 0 0
7 3 -1.8875158850155746e-01 5.8746014618137103e+01 6.2437693845726699e+01 8.3189662541633069e+01 0 0 0
12 1 1.9984309658583582e-01 5.8633873324345828e+01 6.3361850438014528e+01 8.2517687788256666e+01 0 0 0
1525 1 1.4254685733401046e-01 6.0043318800574355e+01 6.9323913521289398e+01 8.3834659524321978e+01 0 0 0
587 1 2.0601089048630783e-01 6.5442878278388605e+01 6.7515768667677079e+01 8.7364005187448825e+01 0 0 0
215 1 2.1028942161122130e-01 5.9177794125896206e+01 5.9005004436754653e+01 8.3550223491377920e+01 0 0 0
1531 1 1.5800295945798379e-01 5.9313025279002069e+01 6.9207740247398561e+01 8.6720896332734597e+01 0 0 0
1 1 3.4617879579060662e-01 5.9165176959291010e+01 6.0606292051708209e+01 8.0926408893468306e+01 0 0 0
1520 1 1.6577365505753083e-01 6.2577855039892192e+01 6.9404664695483234e+01 8.2363184034110660e+01 0 0 0
1508 3 -1.8055593568858386e-01 6.4730995086832110e+01 6.9484860903119781e+01 7.8534830907181714e+01 0 0 0
622 1 1.5863888064611581e-01 6.5426920359797776e+01 6.3263899216672996e+01 8.7920159325070600e+01 0 0 0
212 3 -2.2042958718572148e-01 5.9274447137754734e+01 5.9152378064924456e+01 8.4694397853478009e+01 0 0 0
617 3 1.0673601674094728e-01 6.5003073406948602e+01 6.3318694427996377e+01 8.8990890457395480e+01 0 0 0
3495 1 1.5205844871218696e-01 5.8939325222758256e+01 6.0010535951765910e+01 8.8851737155908950e+01 0 1 0
7612 3 5.7628112764153298e-02 6.8944493172187876e+01 5.8921235879568201e+01 8.3340493575020304e+01 0 1 0
356 1 1.3652604775403776e-01 5.8577904850383199e+01 6.7316279403003833e+01 7.9149324218491870e+01 0 0 0
146 1 1.3145915954276130e-01 5.8732937921580280e+01 6.5002796468734758e+01 8.2195286862617152e+01 0 0 0
3204 2 -4.0229577906640906e-01 6.0674339226114384e+01 5.8727788161649244e+01 7.8495264509114520e+01 0 1 0
55 3 5.1563131907298332e-01 6.5458829833529421e+01 6.1705926671163724e+01 8.1654763079907553e+01 0 0 0
222 1 1.7288037465582554e-01 6.1938788329254031e+01 5.8730158257640291e+01 8.4133157249368651e+01 0 0 0
58 2 -5.6228182425406348e-01 6.5309536416515357e+01 6.0456393841513560e+01 8.2291038560789573e+01 0 0 0
56 1 1.7488864475426458e-01 6.5548616165282255e+01 6.0906539157871677e+01 7.9660627057453283e+01 0 0 0
246 1 2.0219520578870731e-01 7.2787209359152257e+01 5.8838152100217812e+01 8.0171670455122992e+01 0 0 0
147 1 1.4044143967249398e-01 5.8630180309575223e+01 6.5198914676429283e+01 7.9334320123739914e+01 0 0 0
145 1 8.5374417397238944e-02 5.9026184747027983e+01 6.6318956529661506e+01 8.1227417578554267e+01 0 0 0
148 4 -4.4078144059306407e-01 5.8467937384741660e+01 6.3327195955162139e+01 8.0144717592951991e+01 0 0 0
16 1 1.1851122721960890e-01 5.8732622654951435e+01 6.2048632111913975e+01 8.5275646243147250e+01 0 0 0
249 2 -6.0297299740244037e-01 7.1087831833115501e+01 6.0887958893893369e+01 7.8068738585737051e+01 0 0 0
117 1 2.1109515590928171e-01 7.0726149876527927e+01 6.5853328081754171e+01 8.3448767327271952e+01 0 0 0
109 2 -5.8673151012309044e-01 6.8592891732323196e+01 6.5464964048696174e+01 8.3934287262056685e+01 0 0 0
454 1 1.5705329910875984e-01 6.9840186041262129e+01 6.7048483545935213e+01 8.7661762129889155e+01 0 0 0
59 2 -5.6896948838826156e-01 6.5692092557415023e+01 6.2886998425811790e+01 8.2073051034771780e+01 0 0 0
104 1 1.5517400739276491e-01 6.6364235336060418e+01 6.4338640539256872e+01 8.6166979630400093e+01 0 0 0
100 3 -2.2359762820138421e-01 6.7435400513691121e+01 6.4637807479502882e+01 8.5911954699475743e+01 0 0 0
245 3 1.1395697742761575e-01 7.2346091578109565e+01 6.0117449739989468e+01 7.8377111892061535e+01 0 0 0
1509 1 1.9142028443002770e-01 6.6928479628727928e+01 6.9165816583485338e+01 7.8469624321180888e+01 0 0 0
113 3 4.9925080848919140e-01 6.8708787352533989e+01 6.6049764487938774e+01 8.2625589607262270e+01 0 0 0
60 3 4.9895305637821109e-02 6.5563191906499313e+01 6.0564324467521736e+01 8.3730426722030899e+01 0 0 0
62 1 1.4075646818411164e-01 6.5453463515440802e+01 6.1552420242386376e+01 8.4331921354304839e+01 0 0 0
266 1 1.3885870190442151e-01 6.8960328443302600e+01 6.3473816352565379e+01 8.0751969876974059e+01 0 0 0
7608 2 -6.4184283118541730e-01 7.2199080202015779e+01 5.8681838832949857e+01 8.2215734305634015e+01 0 1 0
7609 3 -2.1796991452285092e-01 7.0122507502363874e+01 5.9822225670706750e+01 8.4031703902997890e+01 0 1 0
452 3 7.7713806049896595e-03 7.0748784803108563e+01 6.7641382320892873e+01 8.7953642001330564e+01 0 0 0
273 1 1.6847209828428447e-01 6.9135052430407001e+01 6.7073123788437499e+01 7.8461945928302541e+01 0 0 0
242 3 -1.8290102520407184e-01 7.1989922045250594e+01 5.8950463547731538e+01 7.9373312914420410e+01 0 0 0
298 1 1.4876402907342801e-01 7.0915364018483487e+01 6.9432131633178969e+01 7.8580233624969793e+01 0 0 0
260 1 1.4735245778892078e-01 6.9104438265621567e+01 6.1910696297192466e+01 7.9223242984972828e+01 0 0 0
469 2 -5.6184811429203985e-01 7.2624330009173050e+01 6.4349420897815349e+01 8.3695109242613370e+01 0 0 0
95 3 5.9370652048334605e-01 6.7953973522369623e+01 6.1141455537652014e+01 8.7058078132618874e+01 0 0 0
466 4 -4.1176074865458023e-01 7.2848517491108453e+01 6.5974131215751768e+01 8.5487251282100473e+01 0 0 0
272 1 1.4543608141999900e-01 6.8890753620834630e+01 6.7119320070192501e+01 7.9968955944259051e+01 0 0 0
102 1 1.6423054167898257e-01 6.8672753900809994e+01 6.3038932427631430e+01 8.5130133298580390e+01 0 0 0
111 1 1.0445691474427034e-01 6.6594255909042317e+01 6.6236063940336919e+01 8.4560046675462118e+01 0 0 0
123 1 1.5366002765193790e-01 7.0894232047751260e+01 6.8341751721578902e+01 8.4452820493232991e+01 0 0 0
119 3 3.1791303143420893e-02 7.0085588864854103e+01 6.8476990043326978e+01 8.3718745675390977e+01 0 0 0
114 3 -2.4521218854897281e-01 7.0214075936589126e+01 6.6272493798207222e+01 8.2515950376992748e+01 0 0 0
7607 3 -2.2840145763274114e-01 7.1227151958313542e+01 5.8944599937191761e+01 8.4520209764299054e+01 0 1 0
118 1 1.9831439854761482e-01 7.0662149932354225e+01 6.5649738339345760e+01 8.1737859972757136e+01 0 0 0
120 1 1.7065827128304667e-01 7.0328342231596849e+01 6.8271790384286845e+01 8.1452465797784171e+01 0 0 0
267 2 -4.8595577644836269e-01 6.9656622929290322e+01 6.5130292033956110e+01 7.9487031028394100e+01 0 0 0
7617 1 1.2892917596442785e-01 6.8203266097998124e+01 5.9606247248752659e+01 8.2909219180812528e+01 0 1 0
299 1 2.0774472460532545e-01 7.1914778398667593e+01 6.8146348046223949e+01 7.9173617882368035e+01 0 0 0
455 1 1.0709177386455165e-01 7.0161081011767763e+01 6.8528051453491287e+01 8.8287550303438692e+01 0 0 0
295 3 -2.3921276544165498e-01 7.1925470312807079e+01 6.9000245721926362e+01 7.8453075850182401e+01 0 0 0
244 1 1.6844148061802380e-01 7.0217486196918216e+01 6.0280574657866637e+01 7.9818964669053955e+01 0 0 0
456 2 -4.4181893375100489e-01 7.1818729355075391e+01 6.7834629406714384e+01 8.6992492152096872e+01 0 0 0
106 2 -6.2874695499426581e-01 7.0460162580360873e+01 6.4511475322994428e+01 8.6166357346829059e+01 0 0 0
243 1 1.5163881703080964e-01 7.0613714208368236e+01 5.9448383785904120e+01 8.1043163722418399e+01 0 0 0
270 1 1.6442499233663430e-01 6.6671248862620160e+01 6.4369294711008024e+01 8.0558551820300508e+01 0 0 0
97 2 -5.9684375181577587e-01 6.7336329192425808e+01 6.2354039548669718e+01 8.6850057061453526e+01 0 0 0
241 3 7.6953532654725265e-02 7.0561169501468399e+01 5.9188469534519655e+01 7.9958513954850361e+01 0 0 0
7613 1 2.1149697988391070e-01 6.9680212879404351e+01 6.0254651184827445e+01 8.4956652675617818e+01 0 1 0
105 1 1.5301242687732161e-01 6.7812881043249433e+01 6.5364907165521004e+01 8.6689206381738799e+01 0 0 0
476 1 1.9088243937134947e-01 7.2252411450727706e+01 6.2122546229110107e+01 8.4084517399118099e+01 0 0 0
484 1 3.2702306038056689e-01 7.1847535084748458e+01 6.1895689082623910e+01 8.0284056795955934e+01 0 0 0
101 3 -1.1491573393818916e-02 6.9519758099460077e+01 6.3710094686873497e+01 8.6967002420815504e+01 0 0 0
99 3 1.0042258176816618e-01 6.8274781392600289e+01 6.3368752211633485e+01 8.6122350944766509e+01 0 0 0
268 3 7.6610661931543755e-02 6.7246760883466649e+01 6.4433150657900171e+01 7.9623135340297580e+01 0 0 0
7610 1 1.5355194786760312e-01 7.1931139933289984e+01 5.9544309634731825e+01 8.5242418808178044e+01 0 1 0
96 1 2.8344141090677449e-01 6.6782833903648807e+01 6.0294369140283884e+01 8.8518090679113456e+01 0 0 0
115 2 -6.1307607355510685e-01 6.7863605443472821e+01 6.6714267236851484e+01 8.1936158644501603e+01 0 0 0
262 3 8.6708523519356984e-02 6.8807676267501321e+01 6.3983657248696375e+01 7.9773132588461891e+01 0 0 0
591 1 1.2669264918784298e-01 6.7506123789137703e+01 6.8908416298306591e+01 8.8481522839372616e+01 0 0 0
269 3 8.1647214381431136e-03 6.8823614837582824e+01 6.6301809107724694e+01 7.9211211354322060e+01 0 0 0
112 1 3.5761585438838367e-01 6.9815052714407543e+01 6.5026255993187334e+01 8.5687367603419332e+01 0 0 0
359 1 1.5287544536745826e-01 6.0782327203837184e+01 6.9320676446173252e+01 7.9625985275257847e+01 0 0 0
271 3 7.9704285290286732e-03 6.7287333079873747e+01 6.5905866114235707e+01 7.9250125809228791e+01 0 0 0
124 1 1.7522347290616164e-01 6.9210654375272810e+01 6.7770275312010213e+01 8.4097664151914543e+01 0 0 0
110 1 1.3958408934731109e-01 6.6576941160152401e+01 6.4676742104324717e+01 8.3976070362639859e+01 0 0 0
103 3 2.7207028950990329e-02 6.7288471828835711e+01 6.5332573566373782e+01 8.4512507632070125e+01 0 0 0
63 1 1.1473671841536728e-01 6.6587313198268276e+01 6.0609344078314230e+01 8.4087336530752864e+01 0 0 0
116 3 -1.6672498358600479e-01 7.0648044020991151e+01 6.7733345885117345e+01 8.2383794583921997e+01 0 0 0
94 4 -4.5285111566750763e-01 6.7176738185648290e+01 6.0006829540679192e+01 8.7625067712116703e+01 0 0 0
121 1 1.7994226946725927e-01 7.1830739014086404e+01 6.7788310642780829e+01 8.2329490565756032e+01 0 0 0
478 2 -6.4086637014680592e-01 7.1712455773696618e+01 6.2138774789734718e+01 8.1225002260974449e+01 0 0 0
473 3 -9.9262590191129913e-04 7.2634697177927080e+01 6.3266482884866889e+01 8.1413736393782528e+01 0 0 0
35 1 2.0494882194151307e-01 6.6100793503408710e+01 6.7390993945159579e+01 8.2082662706722161e+01 0 0 0
479 1 1.8769221524315488e-01 7.2143130283327082e+01 6.4278409941382634e+01 8.1303218991579371e+01 0 0 0
108 1 2.2704467187966809e-01 6.9910969823650390e+01 6.2832517331371207e+01 8.7563928943025900e+01 0 0 0
477 1 2.3208244832086425e-01 7.2880089229251737e+01 6.1172889348041920e+01 8.2606854330588561e+01 0 0 0
258 3 -9.0358999545200481e-03 6.8936241276580418e+01 6.2924331139781145e+01 7.8665030823077444e+01 0 0 0
586 3 -1.7999805294690766e-01 6.6353890032252124e+01 6.9083195201057535e+01 8.8651986973073988e+01 0 0 0
98 2 -6.1188828356638769e-01 6.9140950610037933e+01 6.0855546639018797e+01 8.6783617751368851e+01 0 0 0
265 2 -5.0892974416132952e-01 6.6617561513930653e+01 6.3766372474805536e+01 7.8451557990362502e+01 0 0 0
468 1 3.2409622940656291e-01 7.2006340217624100e+01 6.5411829677243617e+01 8.5768143618930125e+01 0 0 0
627 1 3.5877434617865778e-01 6.6261896177213359e+01 6.5321102135289152e+01 8.8373284034048567e+01 0 0 0
7614 1 1.5801079483856761e-01 7.0491456692491596e+01 6.0625760449486663e+01 8.3387104729570339e+01 0 1 0
107 1 2.1431087675277069e-01 6.9209062167736306e+01 6.4141931793585059e+01 8.7949452745369229e+01 0 0 0
274 1 1.5213879111374598e-01 6.6834372480489037e+01 6.6506533256009519e+01 8.0089525647579222e+01 0 0 0
240 2 -5.6826209155631024e-01 6.7537529259648053e+01 5.9390435652174389e+01 7.9953460419257155e+01 0 0 0
610 1 1.7718464436221687e-01 5.9498822191615929e+01 6.4415452170990648e+01 8.9003264655876990e+01 0 0 0
458 2 -4.7647199069637924e-01 7.2900522845567082e+01 6.5132601394652951e+01 8.8922168603540669e+01 0 0 0
259 1 3.1225162367884912e-01 7.0593052357488361e+01 6.4036033399390433e+01 7.8235994771219609e+01 0 0 0
1510 1 1.3660682979277561e-01 6.6244184217527490e+01 6.9502453209418476e+01 8.0088131164103444e+01 0 0 0
453 3 8.7322353414896109e-02 7.2716895289950941e+01 6.6601901987857431e+01 8.9002555186384086e+01 0 0 0
624 1 1.5798792392202643e-01 6.3424789099963817e+01 6.4925520285306831e+01 8.8973783964071998e+01 0 0 0
264 1 1.4298874213192414e-01 6.7441771259048934e+01 6.1705853494733219e+01 7.8041245513240284e+01 0 0 0
3420 1 1.1852925827605587e-01 6.1764455756669889e+01 6.0793075877852672e+01 9.7102369343295265e+01 0 1 0
3415 3 -2.3745529083324501e-02 6.2897738229548601e+01 6.0720687132762357e+01 9.7172393720630438e+01 0 1 0
3418 2 -6.4498092078239699e-01 6.3592896415048365e+01 6.1241492971376935e+01 9.8368707654315983e+01 0 1 0
399 1 1.1572269443217764e-01 6.4768054180201617e+01 6.7357574024475397e+01 9.1552825480489460e+01 0 0 0
421 3 -1.9467475851285623e-01 6.5279762621484437e+01 6.1763305303630744e+01 9.3924180979526426e+01 0 0 0
388 1 1.4156228820120900e-01 6.3018981531836737e+01 6.5152264195216986e+01 9.6900176094410369e+01 0 0 0
386 2 -5.6964522628027570e-01 6.4031904779886375e+01 6.5182932465624248e+01 9.4847109304907150e+01 0 0 0
419 2 -4.2443129006129532e-01 6.2835674405413393e+01 6.1648928224692192e+01 9.3136859055866410e+01 0 0 0
382 3 2.0918289138470034e-02 6.3033160198562840e+01 6.5632426131968572e+01 9.5848669646068657e+01 0 0 0
616 1 1.4605267982697773e-01 6.2914260494502692e+01 6.3481283517472825e+01 9.0732676979269598e+01 0 0 0
3419 1 1.5382941785344045e-01 6.2976650791561276e+01 6.1344821979209080e+01 9.6215444190970501e+01 0 1 0
395 3 5.6832527637427105e-02 6.4361169736652286e+01 6.6485421232778037e+01 9.2242793307416477e+01 0 0 0
398 2 -4.6644597617097039e-01 6.3294017154942431e+01 6.5787301018370798e+01 9.1741443607715453e+01 0 0 0
400 1 1.6086494025641060e-01 6.4212758762388816e+01 6.7142103901234705e+01 9.3138420071704587e+01 0 0 0
625 1 1.7394232990797232e-01 6.4399276379441702e+01 6.4911260395329123e+01 9.0281731131292091e+01 0 0 0
420 3 3.5657575127448646e-02 6.3841956131727613e+01 6.2449639940763987e+01 9.3605813296565742e+01 0 0 0
422 1 1.5739555544802653e-01 6.4042914715546459e+01 6.3343993603418724e+01 9.2974382572919708e+01 0 0 0
426 1 1.9580474114577057e-01 6.5205254353891448e+01 6.0675213507181269e+01 9.3664217315665326e+01 0 0 0
389 3 4.8716736034019309e-01 6.5351871229356036e+01 6.5636838780703357e+01 9.4957566887923647e+01 0 0 0
423 1 1.6172262648969085e-01 6.3593756211170032e+01 6.3008147667798426e+01 9.4582116015505406e+01 0 0 0
387 1 1.1967668467725698e-01 6.3126814429511690e+01 6.6653454424233828e+01 9.6243749946644257e+01 0 0 0
383 1 1.8791116606767233e-01 6.1672615533488433e+01 6.4724416555504590e+01 9.4513489417318667e+01 0 0 0
379 3 -2.3705858927623119e-01 6.1655016376446767e+01 6.5530646597302464e+01 9.5284915563849779e+01 0 0 0
1542 1 1.7203641032941189e-01 6.2087585755220857e+01 6.8105414256446721e+01 9.3896849201003150e+01 0 0 0
384 1 1.8590700557652376e-01 6.1332706197827655e+01 6.6502772022248749e+01 9.4850754050285005e+01 0 0 0
401 4 -1.1675408012378997e-01 6.1808578957532788e+01 6.6165327455547228e+01 9.2458116042716114e+01 0 0 0
404 1 1.8152636879667680e-01 6.1489126677047906e+01 6.4963138870597135e+01 9.1063770353652558e+01 0 0 0
613 3 4.7239849585788779e-02 6.2548291163895385e+01 6.2775943869372945e+01 8.9920653807491362e+01 0 0 0
615 1 1.4428697990686579e-01 6.2382123955215924e+01 6.1925990243005451e+01 9.0620951998246468e+01 0 0 0
417 4 -1.6830883513460573e-01 6.1284249092525982e+01 6.2370175960053494e+01 9.3335905913051278e+01 0 0 0
402 3 1.0693734103136244e-02 6.1019962856856864e+01 6.5606976464647644e+01 9.1852461952829884e+01 0 0 0
593 1 1.7017215363826335e-01 6.4773770913739526e+01 6.8219829449185497e+01 9.0005467618506827e+01 0 0 0
376 3 1.1421947434351583e-01 6.0642902987123861e+01 6.5152145768965909e+01 9.6394648719695581e+01 0 0 0
381 1 1.6867393273518438e-01 6.1129788744275629e+01 6.5542442630487614e+01 9.7333771540930755e+01 0 0 0
418 1 1.8103870947914716e-01 6.1173068965999271e+01 6.0839781368326179e+01 9.2162407662740307e+01 0 0 0
414 3 7.8836000892522542e-03 6.0620790824969518e+01 6.1669734296219332e+01 9.2711187777781007e+01 0 0 0
3422 1 3.6116148745232463e-01 6.3029338000498242e+01 6.2050652373097215e+01 9.8540712247530195e+01 0 1 0
374 2 -6.1961176287084829e-01 6.0868608604885651e+01 6.3042255541648878e+01 9.7823039518936142e+01 0 0 0
581 1 1.4072652197635022e-01 6.1121557183820073e+01 6.7302315673603118e+01 8.9693283410873804e+01 0 0 0
403 3 -2.0343182122640210e-01 5.9454654165664600e+01 6.5824454581428228e+01 9.2003844303903847e+01 0 0 0
380 2 -5.8168122576438885e-01 5.9369131658895981e+01 6.5829554439002408e+01 9.5983428380987846e+01 0 0 0
3413 1 1.7729845693934951e-01 6.4358980149704180e+01 5.9467196536515530e+01 9.8804789745323077e+01 0 1 0
375 3 -1.9557414937175360e-02 6.0388640306797477e+01 6.3630731340560942e+01 9.6585361659278547e+01 0 0 0
5332 1 1.5593157479604519e-01 6.1583311839869538e+01 6.9021431143826362e+01 9.8568134980801773e+01 1 0 0
3689 1 1.6241287647663197e-01 6.0282925802921952e+01 5.9557931130238423e+01 9.4087178797356827e+01 0 1 0
5326 1 1.5623518381248033e-01 6.2561808337148484e+01 6.6799108908238196e+01 9.8700371063460707e+01 1 0 0
573 3 -1.9628849535621068e-01 5.9625019661041776e+01 6.8904357530918134e+01 9.0042099183900319e+01 0 0 0
406 1 1.8288830642678522e-01 5.9137672995149138e+01 6.6341350820410341e+01 9.3033200503991623e+01 0 0 0
3694 2 -5.8060911702198870e-01 5.9087869325055770e+01 5.9995870364593792e+01 9.7134153518402101e+01 0 1 0
407 1 1.4848284748789853e-01 5.9048598100315154e+01 6.6464179580282831e+01 9.1205715320799669e+01 0 0 0
3685 3 -2.0351748497842803e-01 5.9589406215129095e+01 5.9151408587058633e+01 9.4933863961477414e+01 0 1 0
385 3 6.3179674530790453e-01 5.9276901086691808e+01 6.7175305469883227e+01 9.6268638734961030e+01 0 0 0
412 1 1.4441015390347262e-01 5.9366957451216024e+01 6.3850555855964572e+01 9.3854071674134588e+01 0 0 0
373 1 2.9442106955332825e-01 6.0488398394195464e+01 6.2100372420045638e+01 9.7861770657904160e+01 0 0 0
502 2 -6.3339646992430165e-01 6.0113940875611036e+01 6.7797184405301707e+01 9.6982291283425454e+01 0 0 0
5329 1 2.1690905655955847e-01 5.9989601627367065e+01 6.6844524678162415e+01 9.8992908725770661e+01 1 0 0
3412 3 1.0260708086489179e-01 6.3271997328346657e+01 5.9282694431564103e+01 9.6821180708957769e+01 0 1 0
5323 2 -5.3481484856655048e-01 6.3004404538548151e+01 6.4396531594326405e+01 9.9425453925195882e+01 1 0 0
411 3 -2.1077173789546219e-01 5.9121371483775064e+01 6.1987553334912413e+01 9.2430722862303085e+01 0 0 0
1537 3 -2.0478513266462814e-01 6.2408434618387496e+01 6.9134588769705516e+01 9.4199821785808709e+01 0 0 0
5322 3 -2.4440872910869960e-01 6.2090783412590405e+01 6.6603259294779960e+01 9.9678826895798267e+01 1 0 0
415 1 1.5575553050210733e-01 5.8528867582074419e+01 6.1133781865868421e+01 9.2975638899462155e+01 0 0 0
5331 1 1.6822214668949531e-01 5.9931380480356680e+01 6.9209717518327238e+01 9.8857240550990809e+01 1 0 0
409 1 1.3452826481422289e-01 5.9296629167356159e+01 6.3904750928685253e+01 9.0905456995294031e+01 0 0 0
429 1 2.1541787987388444e-01 6.5238865889001730e+01 6.1234666564279024e+01 9.6054814192982107e+01 0 0 0
3491 1 1.5982521572220207e-01 6.0999729322011341e+01 5.9472003666131734e+01 8.9573474409900228e+01 0 1 0
1886 2 -4.5888220562797361e-01 6.4667017167509499e+01 6.8345464098036075e+01 9.9332951543270099e+01 0 0 0
1895 1 1.7844206596484427e-01 6.5354506459824634e+01 6.3916384397344700e+01 9.9044868262998804e+01 0 0 0
1892 1 1.8126704666459431e-01 6.4964231039983844e+01 6.6569393324820766e+01 9.8394673925086479e+01 0 0 0
578 1 1.7733899179960289e-01 5.9572115894715871e+01 6.8318481830807315e+01 9.1046056850162955e+01 0 0 0
1890 3 3.6158504884154001e-02 6.5413698558500315e+01 6.6204806419001258e+01 9.9378787134093074e+01 0 0 0
378 1 1.1152682342264032e-01 6.0668577081464996e+01 6.3103842519202637e+01 9.5656909551922723e+01 0 0 0
3416 2 -5.6576204109574435e-01 6.4037271041685699e+01 5.9282602869299907e+01 9.5487482310313283e+01 0 1 0
5327 3 3.2246804212056085e-02 6.0889457320077554e+01 6.8890284378984290e+01 9.9394617951019015e+01 1 0 0
3695 1 9.5438213854030077e-02 5.9604526583984942e+01 6.1337075192768125e+01 9.5359255477465396e+01 0 1 0
3414 1 1.9539229370374395e-01 6.5340187346180556e+01 5.9101922217762358e+01 9.7476991561387138e+01 0 1 0
5310 1 1.7065637586282215e-01 5.8719325276057880e+01 6.3766731164087339e+01 9.9272817495128407e+01 1 0 0
3688 3 3.9552416601940071e-03 5.9084074469043962e+01 6.0388867041284406e+01 9.5719236709007006e+01 0 1 0
405 3 -1.8465896275083776e-01 5.8763441427933792e+01 6.4421223643039184e+01 9.1750146811376624e+01 0 0 0
408 3 -1.6429421479017284e-01 5.8727330036253527e+01 6.3431471759747275e+01 9.2952521246346549e+01 0 0 0
5324 3 -1.5708621424679323e-01 6.0699862155821585e+01 6.7335054830307769e+01 9.9734163316212033e+01 1 0 0
611 2 -6.1024243212212148e-01 6.1493305388363083e+01 6.3399836516946856e+01 8.9170253604639868e+01 0 0 0
428 1 1.4731306998684776e-01 6.5225271346432905e+01 6.2976849020845279e+01 9.5748464306485161e+01 0 0 0
1917 1 1.7040982139095037e-01 6.5129625072109931e+01 6.9048425929278082e+01 9.5050560117854360e+01 0 0 0
416 1 1.5192211308409562e-01 5.8789232577326686e+01 6.1876072090709911e+01 9.1340365963118003e+01 0 0 0
1607 3 4.5980313637399524e-02 7.2189499200642459e+01 6.9448431329526755e+01 9.1823066708505110e+01 0 0 0
1543 3 5.1291775539687523e-01 5.9899530030199408e+01 6.9485706371421117e+01 9.3844505839177813e+01 0 0 0
576 3 3.3916339363090117e-02 6.0702880307329877e+01 6.8122974294970703e+01 8.9090813535693755e+01 0 0 0
397 1 1.7107324736969726e-01 6.5536319882358143e+01 6.4576660204361048e+01 9.2078083070857502e+01 0 0 0
1541 1 1.5005383180450488e-01 6.3185988622721098e+01 6.8986214246103330e+01 9.5012765933258464e+01 0 0 0
3692 1 1.8490024483524453e-01 5.8657265017425040e+01 5.9240213028269835e+01 9.2432370826574513e+01 0 1 0
82 1 1.7703018444999541e-01 6.4555698312271673e+01 5.8821221628246278e+01 9.0529819794757856e+01 0 0 0