LAMMPS data file via write_data, version 23 Jun 2022, timestep = 1000000

8928 atoms
4 atom types

39.61925068984581 135.5807493101736 xlo xhi
61.54485617936901 88.45514382064141 ylo yhi
82.16027737603739 117.83972262395406 zlo zhi

Masses

1 1.008
2 15.999
3 12.011
4 14.007

Atoms # charge/kk

2996 3 -1.9887753455112236e-01 4.9093559421648933e+01 6.4656861839584735e+01 8.7555279771759928e+01 0 1 0
3000 1 1.6895046949919620e-01 4.8632307002747950e+01 6.5159157768280579e+01 8.8449580730600289e+01 0 1 0
2994 3 -2.1912715123020357e-01 4.8434466018363665e+01 6.3391750306990971e+01 8.7042680165092136e+01 0 1 0
2993 3 4.8292674285538012e-01 4.6945773398418169e+01 6.3508852407373006e+01 8.7160288264101240e+01 0 1 0
2995 2 -6.2851672094596345e-01 4.6237403750793241e+01 6.3875580334166074e+01 8.8163225027010384e+01 0 1 0
3001 1 1.4852335427146190e-01 5.0179930079559753e+01 6.4439248949893170e+01 8.7827010582391523e+01 0 1 0
330 1 1.5817504871832741e-01 4.6377835956631003e+01 6.6533792979947151e+01 8.7500302637004751e+01 0 0 0
327 3 1.4133222355313848e-03 4.5237048412288487e+01 6.6731261270711627e+01 8.7564125055279504e+01 0 0 0
2999 3 2.0402743861332933e-02 4.9226701914996227e+01 6.5732552742962952e+01 8.6292266636539551e+01 0 1 0
328 1 1.3367144331607853e-01 4.5693774092776948e+01 6.5844388595180618e+01 8.5598785982811719e+01 0 0 0
325 3 2.6438138867974085e-02 4.4749345544206101e+01 6.6176220305392846e+01 8.6164474035497562e+01 0 0 0
3004 1 1.5769986504296471e-01 4.8872235468304993e+01 6.6762308046825964e+01 8.6588185907436483e+01 0 1 0
3003 1 1.4572732942402888e-01 5.0337154604682709e+01 6.5843759048584971e+01 8.6260568609676326e+01 0 1 0
329 1 1.5256489784865823e-01 4.4555039862601454e+01 6.7123224358307397e+01 8.5504192503404198e+01 0 0 0
3002 2 -4.3356973228918949e-01 4.8723365661355487e+01 6.5187112759852752e+01 8.5138268368653087e+01 0 1 0
318 3 1.0690825704216485e-01 4.3527448453081732e+01 6.4927071750689748e+01 8.7739707886788537e+01 0 0 0
323 2 -4.8227633546293019e-01 4.3707240049641001e+01 6.5240423386339430e+01 8.6331979388800846e+01 0 0 0
3005 4 -1.9406506791224512e-01 4.9872300771196805e+01 6.4181672592855335e+01 8.4387649508783085e+01 0 1 0
324 3 9.1014820162658827e-02 4.4415648721380066e+01 6.5848549341707667e+01 8.8569542823187945e+01 0 0 0
322 1 1.2146801118546217e-01 4.3777745827961219e+01 6.3817619180746163e+01 8.8116565927735692e+01 0 0 0
314 3 -1.6931676735746342e-02 4.2039552620481523e+01 6.5099479191362263e+01 8.8196399665179356e+01 0 0 0
326 1 1.5926927552795347e-01 4.5207141552972253e+01 6.5253379979082965e+01 8.9158102797034715e+01 0 0 0
317 3 5.1488143810734660e-03 4.2147847240581157e+01 6.6248967726942126e+01 8.9261417028236849e+01 0 0 0
3504 1 1.1450607808974406e-01 4.5093587322316992e+01 6.3856286984421750e+01 9.0759420800750974e+01 0 1 0
321 2 -5.2269799715292042e-01 4.3514786911030754e+01 6.6664760299351684e+01 8.9410725126060171e+01 0 0 0
3510 1 1.3003987049865767e-01 4.4370083335897363e+01 6.5784572034321926e+01 9.1476152455750707e+01 0 1 0
3495 1 1.8934311485646887e-01 4.8404982064661212e+01 6.4139201578622632e+01 9.1464489182496791e+01 0 1 0
685 2 -6.3663258853369142e-01 4.8628196736730196e+01 6.5059719071521272e+01 9.3194252026508593e+01 0 0 0
3499 2 -5.6157931816078088e-01 4.6170152286376698e+01 6.3560523429073768e+01 9.2713321176192977e+01 0 1 0
3502 3 -2.1632579626067536e-01 4.4020045931264249e+01 6.2425242206238451e+01 9.1851040276410046e+01 0 1 0
3498 1 2.9646246853956543e-01 4.8344324066272456e+01 6.3276176736536016e+01 9.3327434119454566e+01 0 1 0
3496 4 -3.7560624640312473e-01 4.8287758851809571e+01 6.2451975208677780e+01 9.2686652746544340e+01 0 1 0
3508 2 -6.4369998310915755e-01 4.2709787747791431e+01 6.4741570044591853e+01 9.2616138626752260e+01 0 1 0
3501 3 1.0932511852237979e-01 4.4950775306512284e+01 6.3672532693205888e+01 9.1861725298357243e+01 0 1 0
3506 1 2.3649696391941499e-01 4.3263956791451065e+01 6.2467784243537075e+01 9.2731353710728925e+01 0 1 0
3497 3 5.6477641529367051e-01 4.6817920884649752e+01 6.2342494684819222e+01 9.2534160042809219e+01 0 1 0
3529 1 3.6253889930096356e-01 4.2351707728852908e+01 6.4111308079897753e+01 9.1896393262182002e+01 0 1 0
3503 3 -2.3363539445971235e-02 4.4100621596494634e+01 6.4947805331307535e+01 9.2208346536871574e+01 0 1 0
3509 1 1.6866908348697909e-01 4.4723980678838593e+01 6.5610821796334363e+01 9.2833134534583763e+01 0 1 0
3492 3 2.4132327582125763e-02 4.9006436653376262e+01 6.3128978555291162e+01 9.1536390623107636e+01 0 1 0
3489 3 9.2317800378018566e-02 5.0548688015128825e+01 6.3394578957474550e+01 9.1653353170914670e+01 0 1 0
320 1 1.8567444370669509e-01 4.1392966499237936e+01 6.7015543356443601e+01 8.9028728089782760e+01 0 0 0
316 1 1.6700000549257718e-01 4.1684889161664657e+01 6.4149312604996496e+01 8.8687066411498904e+01 0 0 0
319 1 1.6256343985614102e-01 4.1646884335495670e+01 6.5925029539132311e+01 9.0229285816874238e+01 0 0 0
315 1 3.2355126785345023e-01 4.1697482881429274e+01 6.5563589865213302e+01 8.6304358761327705e+01 0 0 0
3511 2 -5.8988210933745000e-01 4.1838243956424016e+01 6.2548323587875352e+01 9.0986428895081616e+01 0 1 0
312 4 -4.2064766989111735e-01 4.1077611411387934e+01 6.5228008318247788e+01 8.7014266631873525e+01 0 0 0
566 3 6.2693428031981002e-01 4.7920101243180937e+01 6.6059967757851339e+01 9.3630201770770043e+01 0 0 0
2998 1 2.4522848538431000e-01 4.8663129297207739e+01 6.3365052218010788e+01 8.5939537629225129e+01 0 1 0
2991 1 1.9925095769132853e-01 4.4728716225206675e+01 6.3622559882078562e+01 8.4908974653876371e+01 0 1 0
557 3 1.0703019725227368e-01 4.9480655107666578e+01 6.7482102047985421e+01 9.2387219067019174e+01 0 0 0
194 3 5.7400374887389194e-01 4.0493735574765644e+01 6.4034957220538089e+01 8.6396843226369299e+01 0 0 0
720 1 1.6371792233600901e-01 4.2229888519924074e+01 6.6905232204480498e+01 9.2461952619774991e+01 0 0 0
3006 3 6.0546675908250226e-02 4.9566718973334112e+01 6.4182531974100272e+01 8.3287736944583045e+01 0 1 0
313 2 -5.6187035890361037e-01 4.0334165358239211e+01 6.3998568541291206e+01 8.5137181334690609e+01 0 0 0
3008 1 2.0693341461371187e-01 4.8747082924269122e+01 6.4836724695561557e+01 8.3032159600355044e+01 0 1 0
712 3 3.0708785439956844e-02 4.1510746583857411e+01 6.7477917069526896e+01 9.3148814836034802e+01 0 0 0
561 2 -5.2420441647571003e-01 4.8302697883498347e+01 6.7364475784205624e+01 9.3428093892697433e+01 0 0 0
189 2 -5.7029339278941515e-01 4.0233957329896619e+01 6.2984581450988884e+01 8.7298181728252374e+01 0 0 0
2990 2 -5.6095901928862257e-01 4.6700387883742493e+01 6.2985452396387750e+01 8.5829957115006138e+01 0 1 0
2997 1 2.0512859885081339e-01 4.8861577864671197e+01 6.2462849262439271e+01 8.7514083362375999e+01 0 1 0
174 1 1.7869572670403269e-01 4.7548638053925501e+01 6.6711717928040954e+01 8.3717893986340286e+01 0 0 0
2986 3 1.5310863895831443e-02 4.5286386220748881e+01 6.2792101612242043e+01 8.5382017999114936e+01 0 1 0
3490 3 -3.0215107413790170e-02 4.8793344094755511e+01 6.2462701836284502e+01 9.0139546399878938e+01 0 1 0
3491 1 9.5175028027922395e-02 5.0745565221029274e+01 6.4504420352261931e+01 9.1520671257158980e+01 0 1 0
555 2 -6.5109446591518050e-01 4.9415210232520067e+01 6.7451373101878374e+01 8.9935430869115962e+01 0 0 0
562 1 1.5285036984140180e-01 5.0022950395552293e+01 6.6552028813286555e+01 9.2017599374667341e+01 0 0 0
3512 1 1.0789494300219986e-01 4.3713925762149515e+01 6.2808590719094063e+01 8.9741228897553938e+01 0 1 0
3505 3 1.8178983115972696e-02 4.3210565540698234e+01 6.2234233651361237e+01 9.0558301919249899e+01 0 1 0
213 1 1.4334885071942438e-01 5.0507297833023735e+01 6.2511185006052166e+01 8.6058158412384174e+01 0 0 0
3483 3 8.5221316794970275e-02 5.1121567388387362e+01 6.2707623148425917e+01 9.0357919008158632e+01 0 1 0
163 2 -5.7297047084537855e-01 5.0758596502592397e+01 6.6798446174615620e+01 8.2986875897531149e+01 0 0 0
718 2 -5.4581147029661103e-01 4.0110091691091981e+01 6.6976403911916222e+01 9.3336277319170350e+01 0 0 0
3493 1 1.4409496492080934e-01 4.7917742642855124e+01 6.2853869593662466e+01 8.9633044769481742e+01 0 1 0
3488 2 -4.6458853414408424e-01 5.0043132037027895e+01 6.2503070260125043e+01 8.9369157428181566e+01 0 1 0
554 1 3.4595198649461939e-01 4.8971521874155208e+01 6.7910432115200095e+01 8.9153317029968676e+01 0 0 0
556 3 -2.4460354354386146e-02 4.8947906776141039e+01 6.8196948112987414e+01 9.1140783322707875e+01 0 0 0
3514 3 5.3001526148010081e-01 4.0785631020843276e+01 6.1745566512618979e+01 9.0436812673808248e+01 0 1 0
2992 1 1.6548471329224088e-01 4.4545287721878033e+01 6.2529357036271712e+01 8.6167025938800677e+01 0 1 0
3182 1 1.9321028828105391e-01 4.4738916227010314e+01 6.4960110750806109e+01 8.2409591970928034e+01 0 1 0
3113 1 1.6454934194081292e-01 4.1120778650528734e+01 6.2260773591931283e+01 8.3163142228757295e+01 0 1 0
3518 1 1.7834850966336563e-01 3.9720357002344088e+01 6.3469451202287033e+01 8.9804014191176719e+01 0 1 0
166 3 5.1565174790894153e-01 5.0121205391730463e+01 6.7709658036954480e+01 8.3849209303278400e+01 0 0 0
7929 1 1.9686472616682529e-01 4.0446339643984722e+01 6.4129416686121260e+01 9.3567556429643119e+01 1 1 0
3112 1 1.9897224505061051e-01 4.0789847808879543e+01 6.3794774061479359e+01 8.2803268330492017e+01 0 1 0
565 1 2.0955054998348685e-01 5.0105060664039527e+01 6.8910860128726370e+01 9.3979806772435239e+01 0 0 0
3106 2 -5.8016773386977893e-01 4.3540158731856778e+01 6.3064447218020774e+01 8.3089450230699342e+01 0 1 0
4958 2 -4.1889218135344464e-01 3.9726386266241889e+01 7.1113523857190785e+01 9.0188561146025762e+01 1 0 0
2989 3 5.7197905023987106e-01 4.3384987415948864e+01 6.1990688126620071e+01 8.2437848066436430e+01 0 1 0
211 3 1.6335432287131756e-02 5.1371863552518448e+01 6.1976085680844733e+01 8.6531014027741818e+01 0 0 0
169 3 -1.6735502481182957e-01 4.7591230252060882e+01 6.7788159285592698e+01 8.3412813679182179e+01 0 0 0
173 1 1.7905245652527926e-01 4.6816109699479753e+01 6.7886481517739938e+01 8.2534205889990858e+01 0 0 0
3011 1 1.2654835839041995e-01 5.1358662323481127e+01 6.3001945685506342e+01 8.2532929729112041e+01 0 1 0
3486 2 -4.9887699761476401e-01 5.1079293301111370e+01 6.2583903351481936e+01 9.2741268151534115e+01 0 1 0
168 2 -5.7254995553983556e-01 5.0382323645090317e+01 6.8178687694262322e+01 8.5004082168803208e+01 0 0 0
4586 2 -4.2873087024301498e-01 3.9861457294188000e+01 6.8132183550926484e+01 8.6959308813511839e+01 1 0 0
2988 1 1.7605195879458754e-01 4.5521703333242897e+01 6.2321895149198660e+01 8.3332097742941542e+01 0 1 0
356 1 2.1172029158504699e-01 5.1566843336651893e+01 7.2791526827424619e+01 8.3563023898300045e+01 0 0 0
2983 3 -1.8387454427698960e-01 4.5477008524904754e+01 6.1704298194272496e+01 8.4304049526872078e+01 0 1 0
4761 3 -1.6828818072907520e-01 4.4912855455477384e+01 7.1458965167395050e+01 8.2645325400660909e+01 1 0 0
177 1 1.5314071532537829e-01 4.7121169861333705e+01 6.8049185563915088e+01 8.5642112978943914e+01 0 0 0
193 1 1.9795974283264481e-01 4.2262756763540274e+01 6.2242303210364717e+01 8.6387956532319606e+01 0 0 0
167 3 -2.2833051653005854e-01 4.8954203121901514e+01 6.8294664498277157e+01 8.2994833221509410e+01 0 0 0
711 1 1.5808427211211887e-01 4.3156731510663832e+01 6.9539863795810589e+01 9.4006854667183717e+01 0 0 0
331 4 -4.5732659995220071e-01 4.5029583096639051e+01 6.8218084130548434e+01 8.7863410123712583e+01 0 0 0
3019 1 1.6363231697192307e-01 4.9344786359254094e+01 6.1717310179015378e+01 8.4271395987050226e+01 0 1 0
4591 3 -2.0188894187880302e-01 4.2232664063769668e+01 7.1213123434853642e+01 8.6779791868898258e+01 1 0 0
1822 2 -5.7859062934700345e-01 4.8736288892786263e+01 7.4085578301195810e+01 9.1008540456698555e+01 0 0 0
1649 1 1.4873518523789728e-01 4.2687154514599754e+01 7.3896448328856692e+01 8.2673954884360171e+01 0 0 0
558 1 1.8508772968152018e-01 4.7821470821808113e+01 6.8235885578429432e+01 9.1135575826484114e+01 0 0 0
335 2 -6.3036723655509896e-01 4.7351673083493139e+01 6.8624445657458423e+01 8.7883373025901236e+01 0 0 0
1626 2 -4.7945706860054793e-01 4.6283737321878242e+01 7.4722006072758276e+01 8.2173596301889347e+01 0 0 0
1664 1 1.2884811443271907e-01 4.0185542690552403e+01 7.3523459865003417e+01 8.8789287963102964e+01 0 0 0
715 2 -6.4640393452672618e-01 4.0875399517145809e+01 7.0714545312025024e+01 9.3912685657367007e+01 0 0 0
333 1 2.9896308293254348e-01 4.4257875439293983e+01 6.8199619087856050e+01 8.8562251956408801e+01 0 0 0
139 1 1.3308840231561825e-01 5.1460876918925116e+01 6.8676161585084074e+01 8.8412098494556915e+01 0 0 0
1658 1 1.3224322624548007e-01 4.0598473474682514e+01 7.3981021361857273e+01 8.6145987056516134e+01 0 0 0
349 3 4.6537427103517309e-01 4.9734012034622040e+01 7.2318738456737549e+01 8.5648190395867118e+01 0 0 0
4748 3 4.1663838649856434e-02 3.9985544507127585e+01 7.1165753155560324e+01 8.2276691832015146e+01 1 0 0
4763 1 1.7108946203407485e-01 4.3630524420299878e+01 6.9721365891466917e+01 8.3216813419655679e+01 1 0 0
350 3 -2.6622554014509758e-01 5.0934800321357791e+01 7.3254691378791193e+01 8.5619450831355508e+01 0 0 0
1805 3 1.4951878196402498e-02 5.1171688939059003e+01 7.1984503997458035e+01 8.9009501626403377e+01 0 0 0
354 1 1.8240423317895929e-01 5.0724403103748948e+01 7.4301347847946715e+01 8.5384276533956410e+01 0 0 0
4833 1 1.2157126993442922e-01 4.1791232928722394e+01 7.2114622744085608e+01 8.7393798683694030e+01 1 0 0
4835 1 1.5813937380632651e-01 4.3844057875462930e+01 7.0474535513287094e+01 8.8162147613574177e+01 1 0 0
1807 1 1.3302280376021874e-01 5.1046428896347166e+01 7.1499183190239819e+01 8.8017663499677852e+01 0 0 0
4589 4 -1.1758633234839440e-01 4.0653641749000371e+01 6.9440508928784141e+01 8.6137634970048808e+01 1 0 0
4765 1 2.0041877239210035e-01 4.5591098572750731e+01 7.1565674031419150e+01 8.3529200563699433e+01 1 0 0
1820 3 5.9134029165179514e-01 5.0070089743016560e+01 7.4129694824206368e+01 9.1417895415959080e+01 0 0 0
338 3 -5.7809583397252463e-03 4.7188548194416953e+01 7.1501036109427105e+01 9.0940843818609821e+01 0 0 0
172 3 3.0795968651340697e-02 4.7036956719616526e+01 6.8660469179896410e+01 8.4673184905197289e+01 0 0 0
342 1 1.5312385492156041e-01 4.6453773812055253e+01 7.2210294316683971e+01 8.8198758277126672e+01 0 0 0
719 1 1.3856363526951285e-01 4.1657303511770799e+01 6.8466482462964706e+01 9.2667096778746554e+01 0 0 0
1821 1 3.4756815855771012e-01 4.9829480177441731e+01 7.2265902034257252e+01 9.1682360422212071e+01 0 0 0
1809 2 -4.7548302814604088e-01 5.0732172521269391e+01 7.1297725055780859e+01 9.0207902653308949e+01 0 0 0
336 3 1.0133301584065281e-01 4.7314847461916266e+01 7.0774417923920183e+01 8.9593286440449106e+01 0 0 0
344 1 1.2475618791928725e-01 4.6815007800379533e+01 7.2533693451643046e+01 9.0760766888570060e+01 0 0 0
552 1 1.2920250480330739e-01 4.1847815188778227e+01 7.3115962064100074e+01 9.3455550502386501e+01 0 0 0
1643 3 -1.7018437353225006e-02 4.3206582108112414e+01 7.4575644336085787e+01 8.3367564541194568e+01 0 0 0
176 1 1.8399288617972565e-01 4.7829360516160293e+01 6.9347919727050808e+01 8.4976205113009357e+01 0 0 0
4759 3 -2.4189435815961105e-01 4.3559361883228725e+01 7.0849474329463405e+01 8.3011571330766358e+01 1 0 0
5204 3 -1.7692518939444904e-01 4.3747397677571101e+01 7.2648568458432436e+01 9.1929095494550026e+01 1 0 0
339 1 1.8424550235418333e-01 4.8345907501843222e+01 7.0400039704293420e+01 8.9702381508492039e+01 0 0 0
5207 1 1.6752234663768767e-01 4.3403884499932033e+01 7.3418825222604880e+01 9.1142576257365391e+01 1 0 0
4961 4 -1.4751788631636911e-01 4.1343595286002127e+01 7.0797510663658599e+01 9.0112416621457612e+01 1 0 0
343 2 -6.4320617614391706e-01 4.8322387589943027e+01 7.1299557268622991e+01 9.1839059559644539e+01 0 0 0
359 1 2.0858688342032836e-01 5.1279755661128135e+01 7.0564341726901191e+01 8.5018932096213518e+01 0 0 0
1839 2 -5.9594763714071297e-01 4.4304641288383465e+01 7.4118299660383002e+01 8.8882626702701870e+01 0 0 0
345 1 1.4839542890307977e-01 4.6206609401430853e+01 7.1213491795458197e+01 9.1457525573926688e+01 0 0 0
5206 1 1.5898137172319210e-01 4.3444292616360308e+01 7.0439821542938716e+01 9.2170758951985576e+01 1 0 0
4962 3 3.0626566142180293e-02 4.1824281628470963e+01 7.1259630165643571e+01 9.1046209630390592e+01 1 0 0
337 3 -2.4205149277632121e-01 4.7456193873107452e+01 7.1870538530031808e+01 8.8500812701031080e+01 0 0 0
171 1 1.8983192849597014e-01 4.9011261370817763e+01 6.9416906886245158e+01 8.3012869124784530e+01 0 0 0
4754 2 -5.6194060587989370e-01 4.1295598427300455e+01 7.1297721291708996e+01 8.2925149366481421e+01 1 0 0
334 2 -6.0384575722594791e-01 4.6066967805114814e+01 6.9841973824084889e+01 8.9401471749802965e+01 0 0 0
353 1 1.6227405097870470e-01 5.1471772340566858e+01 7.3269806959370499e+01 8.6613902771590702e+01 0 0 0
1808 1 1.7014522168337753e-01 5.0673420363589372e+01 7.2953780643485558e+01 8.8676065512264771e+01 0 0 0
340 3 3.5181667897060093e-02 4.8201679332147158e+01 7.1501483047770279e+01 8.7224035896400281e+01 0 0 0
1819 4 -4.1926744495382035e-01 5.0439249989408651e+01 7.3001451699698578e+01 9.2260203488412955e+01 0 0 0
4762 1 1.7946423357375604e-01 4.3212933692390571e+01 7.1201937342431350e+01 8.4014907627372253e+01 1 0 0
4832 3 -2.0435773511359742e-01 4.3734762649607923e+01 7.0972532947272100e+01 8.7150961561299937e+01 1 0 0
1631 1 1.1444234600948915e-01 4.6140325834230595e+01 7.4062742824566712e+01 8.4305737049684211e+01 0 0 0
179 3 4.7065810132656996e-02 4.4460151543096174e+01 7.0147542573806959e+01 8.6020681675931215e+01 0 0 0
5208 1 1.6685798495902271e-01 4.4872720204885340e+01 7.2767339745039294e+01 9.1922240443834809e+01 1 0 0
332 3 6.0903575410137456e-01 4.6213660913029997e+01 6.8933846560227266e+01 8.8389905972421801e+01 0 0 0
4836 1 1.6966167460427167e-01 4.4211677843994984e+01 7.1948716657051378e+01 8.7357848852320700e+01 1 0 0
346 2 -5.8568864094340034e-01 4.9179468682583341e+01 7.2577464578801099e+01 8.6956091242945007e+01 0 0 0
4963 3 -2.1015724275259676e-01 4.3364408951680822e+01 7.1203798003802618e+01 9.1384081301442208e+01 1 0 0
4590 3 3.6801122650342000e-03 4.1276208532143173e+01 6.9940149382097559e+01 8.6956538108451610e+01 1 0 0
1627 1 1.6238681529335672e-01 4.8327257885641941e+01 7.3191525477686653e+01 8.3954950100820739e+01 0 0 0
175 2 -4.3694764042424550e-01 4.5791959388211367e+01 6.9196847394279871e+01 8.4391069055870574e+01 0 0 0
347 1 1.7465562969447390e-01 4.8488860241747425e+01 7.0443060870508219e+01 8.7364322369726011e+01 0 0 0
1629 3 1.0961096196997810e-01 4.6712641747053922e+01 7.4706899173385480e+01 8.3563372059052838e+01 0 0 0
178 4 -1.6512503679673762e-01 4.5387163149231114e+01 7.0487717271854535e+01 8.5455490675911861e+01 0 0 0
1669 1 3.1368916465569824e-01 4.2163204966228207e+01 7.3992447590156331e+01 8.4895263979145170e+01 0 0 0
341 1 1.9195114393628587e-01 4.7998212953718060e+01 7.2753080891443616e+01 8.8983829777056485e+01 0 0 0
5205 1 1.6165058497979184e-01 4.4014310640774760e+01 7.0823070867597352e+01 9.0478570745629952e+01 1 0 0
4964 1 1.9769426307797019e-01 4.1077257106178116e+01 7.1733451133041228e+01 9.1700200475895144e+01 1 0 0
4834 1 1.5305807595513291e-01 4.2122955000104369e+01 7.1618132948179792e+01 8.5709506660584552e+01 1 0 0
560 3 -2.3013787139475286e-01 5.0476495464814505e+01 6.8485865085071836e+01 9.3016311941816852e+01 0 0 0
1836 1 1.2556856284189635e-01 4.7119545740419632e+01 7.4188195789858014e+01 8.7579826630059344e+01 0 0 0
551 3 5.4306159924627763e-02 4.3014314273602558e+01 7.2862371456859535e+01 9.3355362230781566e+01 0 0 0
1830 1 1.6743724541661356e-01 4.6508724913421922e+01 7.4103948410372951e+01 8.9936757224128968e+01 0 0 0
1648 2 -6.4637027004624370e-01 4.3135171242596009e+01 7.4219432237737223e+01 8.4761782253241975e+01 0 0 0
348 1 1.5204485320451158e-01 4.7398340437508132e+01 7.1243964803831844e+01 8.6450611712751595e+01 0 0 0
1650 1 1.9111545577542777e-01 4.4209349166342562e+01 7.4608802910109986e+01 8.2919267595337075e+01 0 0 0
1623 3 6.0430626138627201e-02 4.8205482115692320e+01 7.4234637429485815e+01 8.3574653084184746e+01 0 0 0
351 2 -5.7636677807651449e-01 4.9361672001960585e+01 7.1496816529252243e+01 8.4739009465833121e+01 0 0 0
180 1 1.7760013826116519e-01 4.4138870263284474e+01 6.9084925065552241e+01 8.5660660911256286e+01 0 0 0
367 1 3.2287635085153921e-01 4.7969957786519380e+01 7.1829405986850574e+01 9.2587572472963259e+01 0 0 0
4592 1 1.6754246234783884e-01 4.1280301615916656e+01 6.9504165354269091e+01 8.7986224790874928e+01 1 0 0
564 1 1.6500956118684373e-01 5.0596014223096262e+01 6.9377889512025760e+01 9.2382087795209841e+01 0 0 0
559 1 1.7161515457351534e-01 4.9221868076648846e+01 6.9289055870780103e+01 9.1359200030470419e+01 0 0 0
3007 3 -2.0922028403322324e-01 5.0348821012529740e+01 6.3430940306390788e+01 8.2169843000012861e+01 0 1 0
3110 3 -7.2595687274945491e-03 4.0638485105336486e+01 6.2780077050930934e+01 8.2331916841925491e+01 0 1 0
3181 1 1.5045828994649857e-01 4.5110544598312998e+01 6.6581618026103143e+01 8.2176488126883186e+01 0 1 0
4766 1 1.5873165412039941e-01 4.4807752788315767e+01 7.2513376118026386e+01 8.2251796075578270e+01 1 0 0
694 1 1.7051610861922539e-01 4.8259356760366948e+01 6.4927656418981201e+01 9.6937464059869114e+01 0 0 0
688 1 1.6591555685274401e-01 4.7198933696145289e+01 6.4106503528026224e+01 9.5139512663590395e+01 0 0 0
690 3 8.9604011183241059e-02 4.7528069131396578e+01 6.5703615220787427e+01 9.6621785500913404e+01 0 0 0
686 3 -4.7127862736438750e-03 4.6673617731747491e+01 6.5012973308900015e+01 9.5570830556944088e+01 0 0 0
695 2 -4.0084354456730148e-01 4.7968085136344776e+01 6.6985445412600910e+01 9.6176728617044517e+01 0 0 0
696 3 6.6730306000555947e-02 4.6524060023076167e+01 6.5814748722061822e+01 9.7886282293665246e+01 0 0 0
698 1 1.3891951191714727e-01 4.7131112523023944e+01 6.5541858654357299e+01 9.8786204811861055e+01 0 0 0
691 1 1.2237224230708738e-01 4.5256134173081151e+01 6.3433179636435661e+01 9.6048115304085215e+01 0 0 0
689 3 1.4074176698921979e-03 4.5304899425063759e+01 6.4625042403666725e+01 9.6189946788772119e+01 0 0 0
693 2 -4.9802300028221130e-01 4.5276448051370664e+01 6.5174360318695918e+01 9.7570694655915474e+01 0 0 0
699 3 1.9815338400704621e-02 4.6232422478404004e+01 6.7347799315336559e+01 9.7922691108292142e+01 0 0 0
5480 1 1.1975729938609044e-01 4.5430259756522531e+01 6.6315684191332892e+01 9.9977578620837861e+01 1 0 0
3696 1 1.8142002876400401e-01 4.9729249133390169e+01 6.4381467121232433e+01 9.5402425998670054e+01 0 1 0
3699 2 -5.7146804427808917e-01 5.0114447239706841e+01 6.4868247202908364e+01 9.8113234414840477e+01 0 1 0
3697 3 5.2650581345004255e-01 5.0734344515283851e+01 6.5768837343249473e+01 9.7459928408759311e+01 0 1 0
3688 3 3.5557505103967407e-02 5.0749007281387819e+01 6.4779732159295179e+01 9.5206547357775605e+01 0 1 0
5314 2 -6.3010368919574444e-01 4.8692562101231566e+01 6.7519042160134745e+01 9.9390257755009301e+01 1 0 0
5320 1 3.5437416197947746e-01 4.8709008170607127e+01 6.6550723725809547e+01 9.9651028905242299e+01 1 0 0
8116 1 1.5103755953490394e-01 4.9374447225449963e+01 6.2385503205062015e+01 1.0047851774924909e+02 1 1 0
5482 1 1.5375760029973945e-01 4.6204587091915094e+01 6.4308407980383976e+01 1.0060554455845315e+02 1 0 0
5478 1 1.7801058470861492e-01 4.4499356317350937e+01 6.2814835490615096e+01 1.0103730036629042e+02 1 0 0
5481 1 1.4797996404656916e-01 4.5268315584583782e+01 6.6968935108367802e+01 1.0152293496141958e+02 1 0 0
5477 3 -9.1566819821670131e-04 4.4873624496087352e+01 6.6077357866930981e+01 1.0094789490794848e+02 1 0 0
5487 2 -6.2864269645737092e-01 4.8313581152516647e+01 6.4825532940086248e+01 1.0089428072365692e+02 1 0 0
5476 3 6.8723938444225446e-02 4.4473634855397499e+01 6.3728193117549374e+01 1.0180317261105616e+02 1 0 0
5499 1 1.8233681016913672e-01 5.0112161507896005e+01 6.5634231732213053e+01 1.0512624565641070e+02 1 0 0
5492 3 6.7295445956699923e-02 5.0520332894699038e+01 6.6641685055355367e+01 1.0489360399351122e+02 1 0 0
5498 2 -5.5317787988555878e-01 4.9734453711074210e+01 6.7847384077088861e+01 1.0485646883507221e+02 1 0 0
5488 3 1.0538554140298259e-01 5.0350694384814446e+01 6.5627797522966432e+01 1.0246592437295888e+02 1 0 0
5486 2 -5.9491643829998142e-01 4.8953401211632759e+01 6.5384432581685999e+01 1.0308004957830377e+02 1 0 0
5484 3 5.7473519097778158e-01 4.8026800188753995e+01 6.5040426866755055e+01 1.0209676488857048e+02 1 0 0
5491 1 1.4479211065841929e-01 5.0569139052264944e+01 6.6128045759467639e+01 1.0147072727925698e+02 1 0 0
1122 1 1.5561120500863637e-01 4.8630529231724495e+01 6.3704616032875492e+01 1.0420373355804617e+02 0 0 0
1119 3 -2.0280910353613277e-02 4.8049874385645715e+01 6.3780532264992601e+01 1.0517984466165156e+02 0 0 0
5505 3 -1.8282775651415825e-01 4.6725125242851824e+01 6.7575875333813187e+01 1.0554254193009025e+02 1 0 0
1121 1 1.7874287943286549e-01 4.8060525084806500e+01 6.4918478541350737e+01 1.0521615031507443e+02 0 0 0
5483 4 -4.4994833188595240e-01 4.6624049009349896e+01 6.4954505086613480e+01 1.0255298011122689e+02 1 0 0
5485 1 2.9798747477337634e-01 4.6473847824030166e+01 6.4043715037421734e+01 1.0308764140077082e+02 1 0 0
5479 3 4.8549861303335030e-03 4.5591740950598393e+01 6.4767645447280344e+01 1.0145917200249909e+02 1 0 0
5513 1 1.5307615963996807e-01 4.5725929406683612e+01 6.6693781414939878e+01 1.0376515413641309e+02 1 0 0
5497 1 1.4361220275271255e-01 5.0327414915184988e+01 6.3486886925795481e+01 1.0265175981209501e+02 1 0 0
5489 3 -2.2055946692991849e-01 5.1114827799235755e+01 6.6515381583716163e+01 1.0344954333993620e+02 1 0 0
5490 3 -6.5339182222614580e-03 5.1112892391772682e+01 6.4277622521955323e+01 1.0229363010023550e+02 1 0 0
5473 2 -4.9379502251174745e-01 4.4551388502376952e+01 6.3356313695951634e+01 1.0321033664639140e+02 1 0 0
5471 1 1.6880882289230806e-01 4.3560632006961129e+01 6.4729630235653232e+01 1.0460219610325527e+02 1 0 0
5475 2 -5.0255188501430315e-01 4.3450908619942538e+01 6.5808763204984103e+01 1.0088276670923835e+02 1 0 0
1128 1 1.6194513792108714e-01 5.0386968672108381e+01 6.2882054097193304e+01 1.0472000008409346e+02 0 0 0
5510 1 1.6959890331497759e-01 4.7163866033586508e+01 6.6551277633420383e+01 1.0556562799892194e+02 1 0 0
5470 3 8.0409938048890864e-02 4.3153567386554634e+01 6.4495490967995465e+01 1.0142187868080519e+02 1 0 0
5469 3 -3.2807150481980600e-04 4.3395802329044926e+01 6.3930051795931199e+01 1.0387950470856084e+02 1 0 0
5472 1 1.4441509642729738e-01 4.2685709010353840e+01 6.3140448003802888e+01 1.0436422994130287e+02 1 0 0
5467 1 3.0492934382452358e-01 4.2790941940147199e+01 6.6556883233311865e+01 1.0249493355384759e+02 1 0 0
5466 3 -6.3867298562564527e-03 4.2489370421873375e+01 6.4694988391089382e+01 1.0285764645705359e+02 1 0 0
5464 4 -4.4964908943136545e-01 4.2158284401791555e+01 6.6114441355001105e+01 1.0325912513439675e+02 1 0 0
5474 1 1.2178244626497751e-01 4.2495806912329627e+01 6.3781465778528762e+01 1.0083935743809184e+02 1 0 0
705 1 2.7746925387647503e-01 4.4298315501461154e+01 6.6855706568173389e+01 9.7734570061301440e+01 0 0 0
692 1 1.4705803408566731e-01 4.4464899641999963e+01 6.4786387334802555e+01 9.5541445368328283e+01 0 0 0
713 1 2.2077680796199670e-01 4.1565659935063870e+01 6.7180543321081501e+01 9.5403520856361183e+01 0 0 0
687 1 3.4314259732471625e-01 4.6320543835914783e+01 6.6805870607477672e+01 9.4496418770119476e+01 0 0 0
5468 1 1.5370173134651330e-01 4.1430018575481192e+01 6.4242072282479768e+01 1.0274300884312717e+02 1 0 0
5462 3 6.0567178300124913e-01 4.0877744584585109e+01 6.6709563766368859e+01 1.0285393261491554e+02 1 0 0
7928 3 -1.8769261237192675e-01 4.1347974495745703e+01 6.3074418165838900e+01 9.5160398099472673e+01 1 1 0
5140 1 1.5991585128861893e-01 4.1944323158402696e+01 6.5213630871331972e+01 9.8572609419656544e+01 1 0 0
8111 1 1.6072586754465390e-01 4.6765723298420035e+01 6.2783666563614815e+01 9.8105814971436700e+01 1 1 0
3691 2 -6.5109303521485096e-01 4.8964855909343747e+01 6.2071818833804258e+01 9.6325663495491241e+01 0 1 0
7932 1 1.9006382997490759e-01 4.1323476165962624e+01 6.2920586065583073e+01 9.6341760146188776e+01 1 1 0
5136 3 1.8004267913082492e-02 4.0992603821876152e+01 6.5825140969258157e+01 9.8508875811139816e+01 1 0 0
5141 1 1.6356836266083238e-01 4.1133745621034514e+01 6.6388920030673034e+01 9.9433968852987675e+01 1 0 0
5139 2 -4.4190974587865928e-01 4.0738197950666326e+01 6.6462890583482135e+01 9.7304554512454402e+01 1 0 0
8099 2 -6.7908852915273132e-01 4.1621863285609059e+01 6.2532749493694006e+01 9.8630044891613579e+01 1 1 0
8117 1 1.8574977631276177e-01 4.9220362952720905e+01 6.2744025496343120e+01 9.8960875308132188e+01 1 1 0
3686 3 -4.9909826660061454e-02 5.0102005510077269e+01 6.1816152786035524e+01 9.5414559536616125e+01 0 1 0
1118 2 -6.4323023302331406e-01 4.6794318313487707e+01 6.2977817712586528e+01 1.0514419673599845e+02 0 0 0
8112 3 5.2151990483921162e-02 4.9107776462813440e+01 6.1791565642457734e+01 9.9541777252661802e+01 1 1 0
7930 1 2.0324885301800660e-01 4.0599636359316492e+01 6.5137600681433156e+01 9.5010446612111153e+01 1 1 0
5508 3 4.7415776562574105e-02 4.5824714214051824e+01 6.7748947291432358e+01 1.0414265643320370e+02 1 0 0
5457 2 -5.8920479848212293e-01 4.0132246949005044e+01 6.7180936457892273e+01 1.0391485187093413e+02 1 0 0
709 3 -2.2429397810451576e-01 4.2183993080288253e+01 6.7563042660311936e+01 9.4552361643246883e+01 0 0 0
3695 1 1.6229694797865285e-01 5.0659317759208250e+01 6.5017534612391302e+01 9.4075579241018914e+01 0 1 0
702 1 1.5938042673063366e-01 4.6420563999059226e+01 6.7781712158985769e+01 9.8951001629543612e+01 0 0 0
5512 1 1.5716064537133978e-01 4.4737456734791017e+01 6.7834368218190463e+01 1.0443769842260249e+02 1 0 0
703 4 -4.5666634466953987e-01 4.4839129149765178e+01 6.7801564397401648e+01 9.7610934293912962e+01 0 0 0
5465 2 -6.1917544110535438e-01 4.0572674827742496e+01 6.6743417362260018e+01 1.0162505782024158e+02 1 0 0
5315 1 1.4460644841948300e-01 4.8969915371881953e+01 6.7729798947232737e+01 1.0165540854685817e+02 1 0 0
7931 3 3.9028036256005254e-02 4.1042497013087470e+01 6.1638627703627101e+01 9.4564804618034273e+01 1 1 0
8114 1 1.3799248914807752e-01 4.7153581202344576e+01 6.2000916474522839e+01 1.0055351400688215e+02 1 1 0