LAMMPS data file via write_data, version 23 Jun 2022, timestep = 500000

8928 atoms
4 atom types

43.36925068984581 131.8307493101736 xlo xhi
61.27258993288522 88.72741006712052 ylo yhi
81.63935257808858 118.36064742190287 zlo zhi

Masses

1 1.008
2 15.999
3 12.011
4 14.007

Atoms # charge/kk

2996 3 -1.8407719834402175e-01 5.2780621637298260e+01 6.3172827710208821e+01 8.5727593974187258e+01 0 1 0
3000 1 1.3452699555946332e-01 5.3034468906807312e+01 6.3322097504528458e+01 8.6858089267711463e+01 0 1 0
2994 3 -2.2002641507245427e-01 5.2044461771315611e+01 6.1881676788923102e+01 8.5312765574550639e+01 0 1 0
2993 3 5.2716538001817359e-01 5.0582108192377490e+01 6.1868027770008069e+01 8.5717305140930947e+01 0 1 0
2995 2 -5.6442355464503302e-01 5.0183778278065120e+01 6.2432477296239895e+01 8.6779254338707133e+01 0 1 0
3001 1 1.6277445991318967e-01 5.3850079756685062e+01 6.3201002960194728e+01 8.5337034116254387e+01 0 1 0
330 1 1.6806290898929419e-01 4.9689196144833289e+01 6.4932026922132309e+01 8.6758772762186638e+01 0 0 0
327 3 4.9662029287653757e-03 4.8569276622897767e+01 6.5128450380122132e+01 8.6620005354909509e+01 0 0 0
331 4 -4.3081972568080218e-01 4.8286685079676971e+01 6.6632544121713408e+01 8.6522114120476019e+01 0 0 0
2999 3 4.5966742368276463e-02 5.1967125912950010e+01 6.4400396768945015e+01 8.5164170313081911e+01 0 1 0
328 1 1.7901100134802572e-01 4.9013939948540568e+01 6.3926804521026796e+01 8.4769592186242406e+01 0 0 0
325 3 2.7787272883255238e-02 4.8131113881337164e+01 6.4364130008287759e+01 8.5327668406220482e+01 0 0 0
3004 1 1.4690860638577111e-01 5.1660941212755468e+01 6.4988144197002327e+01 8.6034985063315474e+01 0 1 0
3003 1 1.9410906301583172e-01 5.2798285583740984e+01 6.5070459730040866e+01 8.4881803649465894e+01 0 1 0
138 2 -4.9930616343728801e-01 5.4003897135728003e+01 6.6324793766179340e+01 8.6028168154099617e+01 0 0 0
134 3 -7.6995607162177382e-03 5.3633153883497066e+01 6.6343377855817607e+01 8.7440123212965915e+01 0 0 0
329 1 1.3384243905717999e-01 4.8006025376122224e+01 6.5122401484399177e+01 8.4477246532165836e+01 0 0 0
3002 2 -4.5625565268859325e-01 5.1034042660476594e+01 6.4069669362560958e+01 8.4196705673011380e+01 0 1 0
318 3 7.4087423479413717e-02 4.6932488005984027e+01 6.3404502451534313e+01 8.7124133453516208e+01 0 0 0
323 2 -4.7694512070873368e-01 4.7054590482298977e+01 6.3459479709391708e+01 8.5637702421053987e+01 0 0 0
3005 4 -1.1094829468856117e-01 5.1788902335109583e+01 6.3473929021405276e+01 8.2842289373059529e+01 0 1 0
333 1 2.7053458682248122e-01 4.7472334173661586e+01 6.6775154379014140e+01 8.7106247604318924e+01 0 0 0
335 2 -5.7163829340627004e-01 5.0527485951454494e+01 6.7161301908085122e+01 8.6798733848268967e+01 0 0 0
324 3 8.0101692591850515e-02 4.7883515895817069e+01 6.4473293215891346e+01 8.7799180912423182e+01 0 0 0
136 1 1.6426804860212826e-01 5.2516396294211617e+01 6.6296075199189644e+01 8.7728265906344532e+01 0 0 0
322 1 1.4665561206789796e-01 4.7187777732974993e+01 6.2448121087525251e+01 8.7625749321756828e+01 0 0 0
314 3 -1.6841104210215847e-02 4.5470174783036541e+01 6.3787836184267597e+01 8.7533400456782175e+01 0 0 0
326 1 1.5600541155412895e-01 4.8779553218036824e+01 6.3953344016215098e+01 8.8283251006404612e+01 0 0 0
137 1 1.3535244296222171e-01 5.3865655974461319e+01 6.5476310988482140e+01 8.8069003877570822e+01 0 0 0
317 3 1.3222331139828836e-02 4.5654855607358051e+01 6.5116072580956569e+01 8.8318273231472972e+01 0 0 0
3505 3 4.6596186523225266e-02 4.5459337451107466e+01 6.1943969510573027e+01 9.1364452761213627e+01 0 1 0
3504 1 1.4137053742371186e-01 4.7144034884644867e+01 6.3283159411841972e+01 9.0272650801807501e+01 0 1 0
3500 2 -5.7880555597054983e-01 4.9324599195278765e+01 6.2067260021195409e+01 9.0055887946354446e+01 0 1 0
321 2 -5.3005596707313463e-01 4.7033041882989401e+01 6.5356551342338548e+01 8.8626006481960019e+01 0 0 0
3510 1 1.4568236457761360e-01 4.7875291917499048e+01 6.5533544693932910e+01 9.0676463532240177e+01 0 1 0
3493 1 1.9093294835262084e-01 5.1272622303968006e+01 6.1816809507878972e+01 8.8616877526757307e+01 0 1 0
3495 1 1.1783515834913290e-01 5.1910697800050997e+01 6.3680083826183868e+01 8.9947633115686671e+01 0 1 0
3490 3 1.8766582597526740e-02 5.1979781486420819e+01 6.1527239941592576e+01 8.9371563794850260e+01 0 1 0
685 2 -6.4839013871076601e-01 5.1362592639904207e+01 6.5086713055778361e+01 9.2895611952303398e+01 0 0 0
3499 2 -5.9744996180073717e-01 4.8741625957067825e+01 6.3173982881388930e+01 9.2023209343142909e+01 0 1 0
3502 3 -2.1451973412467229e-01 4.6220387158815733e+01 6.2923753003597135e+01 9.2224486241126428e+01 0 1 0
3498 1 3.1764203173020178e-01 5.1092449613814104e+01 6.3662188391300504e+01 9.2013658961214617e+01 0 1 0
3496 4 -4.1140024338389036e-01 5.1071529728427549e+01 6.2695161292656785e+01 9.1548042583966676e+01 0 1 0
3507 1 1.6092395221816547e-01 4.6536650553834406e+01 6.2525425076891494e+01 9.3245140056388834e+01 0 1 0
3508 2 -6.7544734278495178e-01 4.6180196315361023e+01 6.5685177099873925e+01 9.2135466436949415e+01 0 1 0
3501 3 1.1409993786940309e-01 4.7410463795475231e+01 6.3534177328205132e+01 9.1407667088122253e+01 0 1 0
3506 1 2.1266016118267994e-01 4.5610359617367543e+01 6.3777998649301828e+01 9.2588454381683718e+01 0 1 0
3497 3 5.8276756256218887e-01 4.9658792307779372e+01 6.2642443118114336e+01 9.1134530244828753e+01 0 1 0
3529 1 2.8142586962968069e-01 4.6615326343315175e+01 6.6573588128154952e+01 9.2083790197984300e+01 0 1 0
3503 3 -2.4188112224739291e-02 4.7421320421161795e+01 6.5061355387949618e+01 9.1624169309336239e+01 0 1 0
3509 1 1.7996285740198376e-01 4.8399202688388968e+01 6.5172419354366710e+01 9.2246925913498458e+01 0 1 0
3492 3 -5.5366044513406902e-03 5.2087928003557685e+01 6.2700422531373000e+01 9.0441941549996159e+01 0 1 0
562 1 1.6825130888160253e-01 5.3510238078495895e+01 6.6297552939199051e+01 9.2529652269356518e+01 0 0 0
3486 2 -5.0032931481537812e-01 5.3720377707549318e+01 6.2233208233383209e+01 9.2312435022833796e+01 0 1 0
3489 3 1.0853885248726186e-01 5.3553151021316616e+01 6.2674227620050118e+01 9.0927788127909153e+01 0 1 0
557 3 8.7766824928030104e-02 5.3146697552594397e+01 6.7287187617119145e+01 9.2896320068331150e+01 0 0 0
131 3 -1.7132216051984764e-03 5.4228603432568683e+01 6.7647978854144768e+01 8.8060738411967833e+01 0 0 0
554 1 3.3699743769324764e-01 5.2158783096569934e+01 6.5972887840330685e+01 9.0953599958463627e+01 0 0 0
555 2 -6.4707206142187301e-01 5.2758661617200360e+01 6.6657469519668666e+01 9.0541886417311730e+01 0 0 0
320 1 1.5034223996261939e-01 4.5095599663868235e+01 6.5958191180935998e+01 8.7769079544203734e+01 0 0 0
316 1 1.7773540975595623e-01 4.5069594195549058e+01 6.2949078555020442e+01 8.8247728544038765e+01 0 0 0
319 1 1.3679303225853409e-01 4.4929291227776659e+01 6.5111840480082719e+01 8.9189082760369232e+01 0 0 0
3512 1 1.2537717598206410e-01 4.6165107776110254e+01 6.1545059719286286e+01 9.0579277782772380e+01 0 1 0
315 1 3.0264188733859859e-01 4.5189122210542095e+01 6.3834642048690561e+01 8.5618813658031584e+01 0 0 0
2998 1 1.7248545634760909e-01 5.2160811826093138e+01 6.1750946990670975e+01 8.4198690229489628e+01 0 1 0
165 1 1.8368880588986949e-01 5.3932730919940617e+01 6.4616865368227224e+01 8.2365132317217103e+01 0 0 0
332 3 6.0721119216289687e-01 4.9327692110189133e+01 6.7567492791349082e+01 8.6925672808716925e+01 0 0 0
3511 2 -5.5723324249659101e-01 4.4108282459223830e+01 6.2384580051150479e+01 9.0975236637393010e+01 0 1 0
312 4 -4.1260252956864440e-01 4.4438405834393542e+01 6.3813403523960460e+01 8.6395670668355265e+01 0 0 0
566 3 5.9542895393011697e-01 5.1009377604945165e+01 6.6129923050858437e+01 9.3574633673772453e+01 0 0 0
168 2 -5.8061541081983126e-01 5.3311449072663109e+01 6.7598605517119580e+01 8.2558429445689029e+01 0 0 0
169 3 -1.7465594837281906e-01 5.0359438116590667e+01 6.7067987893771672e+01 8.3353387794918319e+01 0 0 0
720 1 1.5312687524048121e-01 4.3572912118424426e+01 6.5626688977958096e+01 9.2583816376962901e+01 0 0 0
173 1 1.6444740651975800e-01 4.9528045940938675e+01 6.6311599825102860e+01 8.3490445620139852e+01 0 0 0
561 2 -5.2156974696798675e-01 5.1833506433991325e+01 6.7228922151520493e+01 9.3791873144129795e+01 0 0 0
166 3 4.9705795620185150e-01 5.2441681440862006e+01 6.6875856683305585e+01 8.1951424635472151e+01 0 0 0
167 3 -2.5679308778181703e-01 5.0947546930683366e+01 6.7113320570934377e+01 8.1975061083866905e+01 0 0 0
556 3 6.3236587613073403e-03 5.2855167051856554e+01 6.7802712125777759e+01 9.1471780433743817e+01 0 0 0
141 3 9.5763566340699477e-02 5.4133899271258457e+01 6.7677945021375990e+01 8.5560337573644858e+01 0 0 0
5205 1 1.7425931254174007e-01 4.5604754390607766e+01 6.6928907906579056e+01 9.0188279852084392e+01 1 0 0
3491 1 1.3765701818014461e-01 5.3919875254586664e+01 6.3754900223104897e+01 9.0662629192181456e+01 0 1 0
719 1 1.6623106387516048e-01 4.3844479866269651e+01 6.7290597811701531e+01 9.2420411347095040e+01 0 0 0
174 1 1.9537141688416021e-01 5.1154736802470417e+01 6.6834670271230152e+01 8.4076199998097863e+01 0 0 0
3008 1 1.4848946054182968e-01 4.9919387095753159e+01 6.3711811085254233e+01 8.2448967152754918e+01 0 1 0
194 3 5.8445211057357649e-01 4.3818534302801432e+01 6.2497326859852116e+01 8.6103374983393735e+01 0 0 0
1835 1 1.7936918263712742e-01 5.1757699265585522e+01 7.4470655015526987e+01 8.9673571186867790e+01 0 0 0
313 2 -6.0847381154591662e-01 4.3696841266096079e+01 6.2064518531159969e+01 8.4900438582858527e+01 0 0 0
3006 3 3.4462233087669665e-02 5.0953731359245971e+01 6.3390707063259256e+01 8.2055597306554148e+01 0 1 0
3112 1 1.8065137604001777e-01 4.3541354583822610e+01 6.2348114791412257e+01 8.2833235677916790e+01 0 1 0
1820 3 6.5151643453945673e-01 5.4327874773375243e+01 7.4791479459428089e+01 9.1109379432239564e+01 0 0 0
133 1 1.9260263523821097e-01 5.3539355624542942e+01 6.7982473469260341e+01 8.8887231963723764e+01 0 0 0
711 1 1.6336936129469423e-01 4.5938072918818861e+01 6.7641012159222498e+01 9.3802944580711198e+01 0 0 0
1646 1 1.4911004046444695e-01 4.3411617575942870e+01 7.4875723588793363e+01 8.3083770932879958e+01 0 0 0
4963 3 -2.1908650854959472e-01 4.5445524776063714e+01 6.8024720127602350e+01 9.0313359829291329e+01 1 0 0
189 2 -5.8094120959927642e-01 4.3518097294737267e+01 6.1776823793751724e+01 8.7235956850760147e+01 0 0 0
345 1 1.5123426237086235e-01 5.0019182307559738e+01 6.8612720309038451e+01 8.9694438820610230e+01 0 0 0
5206 1 1.9089311346219620e-01 4.5679071714301443e+01 6.8331347309414468e+01 9.1364705171424333e+01 1 0 0
3483 3 3.5571220302566091e-02 5.4309388884511414e+01 6.1728414743704299e+01 8.9911992000320680e+01 0 1 0
3110 3 -2.5400556208634126e-03 4.3476436444706728e+01 6.1406018018675674e+01 8.2236241012361432e+01 0 1 0
1840 3 -2.1448775157372552e-01 4.6474104417638813e+01 7.4946239679452873e+01 8.8657018241591402e+01 0 0 0
1848 1 1.3036060841823122e-01 4.5724362250907653e+01 7.4802548719388355e+01 8.6601214412090926e+01 0 0 0
1819 4 -4.6007236517259681e-01 5.4281639194975504e+01 7.3648045965364815e+01 9.2026738808549908e+01 0 0 0
558 1 1.8058967952826571e-01 5.1926667269441772e+01 6.8552197861732580e+01 9.1575837344966970e+01 0 0 0
739 1 3.2658385173449839e-01 4.4156132455969654e+01 7.0494379527436124e+01 9.3018453335462482e+01 0 0 0
546 1 1.5073466849798584e-01 4.9702298053383878e+01 7.0360223962452238e+01 9.3751327496621855e+01 0 0 0
560 3 -2.0427974214146247e-01 5.4241196176391426e+01 6.7944827378475580e+01 9.3665528456977071e+01 0 0 0
2787 2 -6.4139027928265058e-01 5.3237060423563356e+01 7.4719492109864888e+01 8.6158878487262086e+01 0 0 1
175 2 -4.4233430052990946e-01 4.8373898048932503e+01 6.8367987706245017e+01 8.3953249971743162e+01 0 0 0
143 1 1.7273922331468713e-01 5.3362189136649711e+01 6.8090308868663783e+01 8.4842092066946705e+01 0 0 0
4765 1 1.5843090095461820e-01 4.8684511228081803e+01 7.0150336678686628e+01 8.2001286163739607e+01 1 0 0
4964 1 1.8782124705989456e-01 4.3489822528785076e+01 6.9395549786962988e+01 8.9992780544568376e+01 1 0 0
5207 1 1.3500882256879004e-01 4.6337967154616990e+01 6.8342566416221359e+01 8.8278828681461789e+01 1 0 0
353 1 1.9794185287195920e-01 5.4366736149259964e+01 7.0824849576895474e+01 8.5516782468522734e+01 0 0 0
180 1 1.8855178307573020e-01 4.6621338409217934e+01 6.8384701165395953e+01 8.4938071783764869e+01 0 0 0
1844 1 1.4623905178034169e-01 4.6225779940820701e+01 7.4206234883238466e+01 8.9461777655036258e+01 0 0 0
1648 2 -6.1989391574779096e-01 4.3918262632703680e+01 7.1489420216869689e+01 8.1872654416077836e+01 0 0 0
1642 3 -2.1995967808122502e-01 4.3716059184045051e+01 7.4289375242780551e+01 8.3938049110287864e+01 0 0 0
2786 1 3.3224032591077457e-01 5.2496337333205638e+01 7.4398117976650624e+01 8.5582535392357570e+01 0 0 1
352 3 -1.7447896536248314e-01 5.4007231704457872e+01 7.1881638758872100e+01 8.3632344842141109e+01 0 0 0
1633 1 1.0261192437599080e-01 5.0390497740793386e+01 7.4839296989809753e+01 8.5047330297497595e+01 0 0 0
1837 3 4.8530272138776198e-01 4.8817281195323986e+01 7.4330399019173484e+01 8.9126340250201039e+01 0 0 0
2796 1 1.8727932455859786e-01 5.3364963717015208e+01 7.4996339590855314e+01 8.3776794172678251e+01 0 0 1
1841 1 1.2481100904665041e-01 4.7564636498335190e+01 7.3562602880489251e+01 8.7522573488541127e+01 0 0 0
552 1 8.3105103631555322e-02 4.5217804922970444e+01 7.0754224288442146e+01 8.8840304175806423e+01 0 0 0
1838 3 -2.5952966100753283e-01 4.7778078477406346e+01 7.4493379650449526e+01 8.8012446699286841e+01 0 0 0
4590 3 1.9339327057953489e-02 4.3397963103824836e+01 6.9016717187193279e+01 8.5732716612635699e+01 1 0 0
549 1 1.5364452807384477e-01 4.7506845053945469e+01 7.0298593264242186e+01 9.3088095785083993e+01 0 0 0
1664 1 1.2128758091301831e-01 4.3631919400462174e+01 7.4037930207180764e+01 9.0535530339426202e+01 0 0 0
360 1 2.0497619159841818e-01 5.3533861615758710e+01 6.9647666246128281e+01 8.3422840222137935e+01 0 0 0
1847 1 1.2242475809927693e-01 4.4752178001282900e+01 7.4030615984578290e+01 8.7783284189398628e+01 0 0 0
1635 1 1.2637255733623809e-01 4.8468090022449630e+01 7.3758917418561794e+01 8.4632267017005518e+01 0 0 0
344 1 1.4527816079119435e-01 4.9854272083571743e+01 7.0122480646978033e+01 8.9925591156022008e+01 0 0 0
178 4 -1.7266037566016679e-01 4.7654833703902227e+01 6.9860948056980192e+01 8.4456726022934802e+01 0 0 0
367 1 3.2602145715676845e-01 5.2294757851586787e+01 7.0325110915297756e+01 8.9988468585437573e+01 0 0 0
1631 1 1.1395618752888689e-01 4.8709507280781153e+01 7.2035967168953491e+01 8.3393605729615331e+01 0 0 0
543 1 1.9137180727792102e-01 5.0198932904013695e+01 7.2489506143223466e+01 9.2303706495961976e+01 0 0 0
550 4 -7.6943619558778750e-02 4.6614856823338016e+01 7.1026422530697232e+01 9.0184643770808250e+01 0 0 0
1641 3 1.2266619308559158e-01 4.4741244419911659e+01 7.3160961954818617e+01 8.3607796391270654e+01 0 0 0
1623 3 5.6927089898514693e-02 5.0716119094384197e+01 7.2657987580882377e+01 8.2665228540316960e+01 0 0 0
1639 2 -5.8930512872623109e-01 4.6081442809445868e+01 7.3760241590781902e+01 8.3879737679212511e+01 0 0 0
1628 2 -5.3451633792083386e-01 5.1383593749679811e+01 7.3757017521948285e+01 8.3372647604379395e+01 0 0 0
542 1 1.5924648801673288e-01 5.0829143847999319e+01 7.1387455733030976e+01 9.1038774413245093e+01 0 0 0
359 1 1.3305844543373596e-01 5.3155729416068461e+01 7.0450636158181084e+01 8.2070384254743871e+01 0 0 0
347 1 1.4334116389591520e-01 4.9703784153188217e+01 7.1027103544519406e+01 8.5533725534117536e+01 0 0 0
4834 1 1.9141443049050699e-01 4.4148314156606546e+01 7.0092846621249493e+01 8.4055161253662419e+01 1 0 0
1643 3 1.1538063877770091e-03 4.4520606539365758e+01 7.2794347754544063e+01 8.2111300635265138e+01 0 0 0
337 3 -2.1495602503758712e-01 4.9804142120810766e+01 7.1178121856172652e+01 8.7701998707923266e+01 0 0 0
4835 1 1.2938564508316103e-01 4.5641428897612755e+01 6.9833536386812298e+01 8.6791420851890564e+01 1 0 0
1808 1 1.9578484519810485e-01 5.3675682824735730e+01 7.3805344229350112e+01 8.8294482039558972e+01 0 0 0
5204 3 -1.7125017995029648e-01 4.6438355009191177e+01 6.8774175533464742e+01 8.9323541733917040e+01 1 0 0
4836 1 1.3881725885318102e-01 4.5947903739348483e+01 7.1325751616647239e+01 8.5805621568299728e+01 1 0 0
1821 1 3.1800135582230404e-01 5.3367973620987335e+01 7.3193845062184366e+01 9.1967181826136667e+01 0 0 0
539 3 -2.2767096009154339e-01 5.0641108625297363e+01 7.1459257990936464e+01 9.2179284872841862e+01 0 0 0
548 1 1.3923911529001648e-01 4.7909825394683772e+01 7.1831624289705772e+01 9.2528661166034013e+01 0 0 0
177 1 1.9571503642229318e-01 5.0336262012982075e+01 6.8977777756654433e+01 8.4618026181441877e+01 0 0 0
1637 3 6.3276560803376181e-01 4.6494885596431580e+01 7.4821203584669178e+01 8.3051770880661252e+01 0 0 0
1665 1 1.0902184966149614e-01 4.3987265769995496e+01 7.2456494708826710e+01 9.0001175019407157e+01 0 0 0
4762 1 2.0601453000366915e-01 4.6668812834239930e+01 6.8952930176930238e+01 8.2300328363871159e+01 1 0 0
172 3 5.2039372467849267e-02 4.9696846783928336e+01 6.8516467681153756e+01 8.3775081561307076e+01 0 0 0
348 1 9.0936912316486901e-02 4.9441801940118516e+01 7.2665133195179550e+01 8.6126321798625767e+01 0 0 0
338 3 -2.7538843225961371e-02 5.0551769520632490e+01 6.9510859484699637e+01 8.9315061094453753e+01 0 0 0
339 1 2.0255383685028505e-01 5.1152668300304512e+01 6.9595814695925611e+01 8.7337551837717953e+01 0 0 0
1632 3 -2.2099437474747935e-02 4.8910040754211927e+01 7.4054182100728056e+01 8.3677099745346936e+01 0 0 0
1629 3 9.4489678993633155e-02 4.9170342299677031e+01 7.2863748808856130e+01 8.2754173793282703e+01 0 0 0
544 3 4.5248604248850743e-02 4.8103093784006553e+01 7.0763137269799529e+01 9.2232952408926693e+01 0 0 0
349 3 4.9510796687055392e-01 5.2273746037177062e+01 7.1242304450042724e+01 8.5287582898799329e+01 0 0 0
135 3 1.0082335038734030e-01 5.4262443051564219e+01 6.8642852295920164e+01 8.6868013855522278e+01 0 0 0
1839 2 -5.5113355217605309e-01 4.8788885924824960e+01 7.3376470846542489e+01 8.9986407634464840e+01 0 0 0
1644 1 1.3612206886541564e-01 4.4503611044855184e+01 7.2226059961861878e+01 8.4240751859241783e+01 0 0 0
336 3 1.4841502175708482e-01 5.0173097244511105e+01 6.9688783921011719e+01 8.7808702708217211e+01 0 0 0
343 2 -6.4798231206677881e-01 5.2033959457250369e+01 6.9583049121119799e+01 8.9376749495799032e+01 0 0 0
540 2 -6.2186505696837546e-01 5.2804183304471813e+01 7.0291974028302235e+01 9.2721434615594148e+01 0 0 0
139 1 1.3501038311110289e-01 5.3243698799187534e+01 6.9122725645340310e+01 8.7003506396342686e+01 0 0 0
535 2 -6.1005697014195592e-01 5.2068071459982576e+01 7.2527455527431371e+01 9.3478885252258593e+01 0 0 0
541 3 -2.0815142048073987e-01 4.9621221288026618e+01 7.0433303137016097e+01 9.2667472383057543e+01 0 0 0
715 2 -6.2539649910186634e-01 4.4719267686790324e+01 6.9673074992706034e+01 9.3018818497527320e+01 0 0 0
547 2 -4.2678176055085437e-01 4.7834554436052088e+01 7.0229926148801042e+01 9.0991714912866044e+01 0 0 0
4591 3 -2.2621585312547360e-01 4.4144314059721189e+01 7.0226061423926851e+01 8.5166189414519806e+01 1 0 0
350 3 -2.4585129248444718e-01 5.3745270730653054e+01 7.1697470627593972e+01 8.5081235474386361e+01 0 0 0
5208 1 1.9272425788204170e-01 4.7517911146445591e+01 6.8576806623498101e+01 8.9586080650893280e+01 1 0 0
356 1 1.7470448068352279e-01 5.3295070586199344e+01 7.2612874397883004e+01 8.3178242620212515e+01 0 0 0
341 1 1.8459672145515482e-01 5.0258567395524558e+01 7.1773273153622881e+01 8.8534610544266997e+01 0 0 0
1805 3 4.6960843974528039e-03 5.3784450937248302e+01 7.2704548481085553e+01 8.8639011523642509e+01 0 0 0
551 3 3.1194711661436457e-03 4.6075449236696905e+01 7.0308646458599512e+01 8.9478609435864158e+01 0 0 0
538 3 4.7587743058521248e-01 5.1949625917744370e+01 7.1232201453416479e+01 9.2892248813357767e+01 0 0 0
1807 1 1.6604565620818215e-01 5.3112455704524677e+01 7.2111429938242253e+01 8.7933610845224138e+01 0 0 0
4832 3 -2.1374452892309595e-01 4.5619074881387135e+01 7.0227660468313530e+01 8.5772870949898007e+01 1 0 0
545 1 1.5943051881473236e-01 4.9874577292562300e+01 6.9381662496290446e+01 9.2340112791819848e+01 0 0 0
1627 1 1.1957203341943599e-01 5.0977818502301702e+01 7.1589404698970014e+01 8.2942554491637594e+01 0 0 0
334 2 -5.9509503256229035e-01 4.9009461565751074e+01 6.8832436357224950e+01 8.7394503659891285e+01 0 0 0
355 3 5.3984152516628456e-02 5.4012757505984403e+01 7.0468462296807076e+01 8.2775010307960258e+01 0 0 0
176 1 1.1661494209584014e-01 5.0173478963931707e+01 6.9281862759819433e+01 8.3060885182918042e+01 0 0 0
1809 2 -4.8038694473196281e-01 5.3545024216948612e+01 7.2415176245711834e+01 9.0045109440238235e+01 0 0 0
179 3 4.7294778803653383e-02 4.6734684410838966e+01 6.9467880641027094e+01 8.5000679498038906e+01 0 0 0
340 3 4.7315441549074730e-02 5.0129492468226886e+01 7.1774662763272204e+01 8.6350827478147494e+01 0 0 0
351 2 -6.5092001959265944e-01 5.2012224789285590e+01 7.0183964174188517e+01 8.4661089349673631e+01 0 0 0
559 1 1.4286563014913733e-01 5.3604348732832868e+01 6.8621952881029927e+01 9.1240323354672014e+01 0 0 0
342 1 1.5967870876275461e-01 4.8703901310433963e+01 7.1407513812337257e+01 8.7965958134410315e+01 0 0 0
4962 3 1.1885784074064879e-02 4.3976627423069054e+01 6.8363124558076507e+01 8.9907020254530408e+01 1 0 0
354 1 1.9901050009805060e-01 5.4046165680163412e+01 7.2565587058809726e+01 8.5703304825817270e+01 0 0 0
1630 3 -4.9899680671139490e-03 5.0352440826120443e+01 7.4609521706876166e+01 8.3934173311470971e+01 0 0 0
346 2 -5.6905547473155016e-01 5.1558941123601407e+01 7.1996591819154091e+01 8.6240771075867883e+01 0 0 0
1814 1 1.3373268052969683e-01 5.4397820957908280e+01 7.0593205304821566e+01 9.1149272475154461e+01 0 0 0
4833 1 1.3172083919093611e-01 4.3564719474790827e+01 7.1213138090406886e+01 8.5434316530487692e+01 1 0 0
1843 3 2.9224300782435389e-02 4.5200806045550344e+01 7.4994122116151843e+01 8.7596917665814090e+01 0 0 0
694 1 1.7502779608337707e-01 5.0565051289298601e+01 6.4333026705527004e+01 9.6581863083841853e+01 0 0 0
688 1 1.5995187861921598e-01 4.9761286877149971e+01 6.3986259641883898e+01 9.4574087242679184e+01 0 0 0
690 3 7.4437130474225233e-02 4.9982157716433960e+01 6.5250141964790416e+01 9.6433345920764836e+01 0 0 0
686 3 -1.0513551100433780e-03 4.9315010030810996e+01 6.4984110490475288e+01 9.5035074485669981e+01 0 0 0
695 2 -3.9623140698077436e-01 5.0704563172019888e+01 6.6543780721401831e+01 9.6417630968647956e+01 0 0 0
696 3 8.3271040785524691e-02 4.8760110098478613e+01 6.5313484268979124e+01 9.7387769058517875e+01 0 0 0
698 1 1.5434908687727392e-01 4.9064578552627374e+01 6.4682559949868775e+01 9.8299312321981134e+01 0 0 0
691 1 1.0928420393620485e-01 4.7495403666266697e+01 6.3822203876136065e+01 9.4801623725165953e+01 0 0 0
689 3 2.2159930524692364e-02 4.7792555810172622e+01 6.4764012772680644e+01 9.5352336158665040e+01 0 0 0
693 2 -4.5565941824872713e-01 4.7505839991007399e+01 6.4911186629508691e+01 9.6736429670046931e+01 0 0 0
699 3 1.1187205092609832e-02 4.8745874492891609e+01 6.6821763541762451e+01 9.7864577021953423e+01 0 0 0
702 1 1.5538950576465049e-01 4.8786972381025436e+01 6.6865359478601547e+01 9.8985326954345396e+01 0 0 0
692 1 1.5381425292932052e-01 4.7186633918483558e+01 6.5241511272492758e+01 9.4557680912105141e+01 0 0 0
3691 2 -6.8523063112290483e-01 5.1045326744510525e+01 6.1752594009506545e+01 9.5722280446226293e+01 0 1 0
5480 1 1.4880448403727603e-01 4.6324964707693262e+01 6.5038145590870187e+01 9.9124855592125314e+01 1 0 0
3696 1 1.7143323949513928e-01 5.2225395276227715e+01 6.3891061742632353e+01 9.5268457339281412e+01 0 1 0
3699 2 -5.6022863851191740e-01 5.2355521351441162e+01 6.4345275076871857e+01 9.7832818109192345e+01 0 1 0
3687 1 1.9428356155385601e-01 5.3256079694797933e+01 6.1943451634807623e+01 9.6785688895432173e+01 0 1 0
3684 3 1.0470073509392294e-01 5.3561272168737794e+01 6.1785744133547460e+01 9.5696619762490627e+01 0 1 0
3697 3 5.3270945108044965e-01 5.3359038631380514e+01 6.5028838030238305e+01 9.7499310957129225e+01 0 1 0
3688 3 3.8129249882931031e-02 5.3320976362909576e+01 6.4268887833056084e+01 9.5172925959558270e+01 0 1 0
5314 2 -6.3063898095218651e-01 5.1350891284986375e+01 6.7081604306077864e+01 9.9807919428225517e+01 1 0 0
5320 1 3.4167028914176506e-01 5.0792728410114997e+01 6.6215203795782642e+01 9.9788364494156980e+01 1 0 0
8116 1 1.8242741897843992e-01 5.0785935110749868e+01 6.2665832248037020e+01 9.8818367781032691e+01 1 1 0
5482 1 1.4529331713213534e-01 4.7379604807671946e+01 6.3520630323869796e+01 1.0019049778664136e+02 1 0 0
5478 1 1.3476396114451139e-01 4.5597947823014266e+01 6.2365602477194926e+01 1.0102868914260229e+02 1 0 0
5481 1 1.3899969943559601e-01 4.6779713882868016e+01 6.6187932160962049e+01 1.0026393729216589e+02 1 0 0
5477 3 -1.4099487240306428e-02 4.6131015715371568e+01 6.5245679788752952e+01 1.0021163109626114e+02 1 0 0
5316 1 1.6067110836176929e-01 4.9755025579696735e+01 6.7558836074145972e+01 1.0121730490575023e+02 1 0 0
5487 2 -6.1244416730361295e-01 4.9796373415512598e+01 6.4399411720558206e+01 1.0040106667766378e+02 1 0 0
5476 3 6.6461332531917466e-02 4.5781194428384410e+01 6.3263186431132183e+01 1.0167867432446918e+02 1 0 0
5499 1 1.4565194969250567e-01 5.0653877990935435e+01 6.4783461506367118e+01 1.0459771898343718e+02 1 0 0
5492 3 7.0623619946449862e-02 5.1559786271680238e+01 6.5546889281953497e+01 1.0467245932269468e+02 1 0 0
5498 2 -5.4255559724276559e-01 5.1346401305675627e+01 6.6926049970929938e+01 1.0487282963875235e+02 1 0 0
5488 3 1.0160135896510021e-01 5.1769368233571271e+01 6.4448952538864660e+01 1.0226457939994522e+02 1 0 0
5486 2 -6.2304674227223833e-01 5.0305422893238045e+01 6.4212554987865431e+01 1.0266691695316467e+02 1 0 0
5315 1 1.4723040360984765e-01 5.1189934031392319e+01 6.7517143621830670e+01 1.0192325239529173e+02 1 0 0
5484 3 6.0094886386203084e-01 4.9404764229742341e+01 6.4410946092984418e+01 1.0160985221664937e+02 1 0 0
5491 1 1.6319127789412330e-01 5.2070854410382736e+01 6.4977062716046134e+01 1.0131454184788092e+02 1 0 0
1122 1 1.4087665535799199e-01 4.9935684751252730e+01 6.2789999244289504e+01 1.0450311868981453e+02 0 0 0
1119 3 -2.5533285659931963e-02 4.9207543792513491e+01 6.2917138415129529e+01 1.0536327436280847e+02 0 0 0
5505 3 -2.1318052493028922e-01 4.8234655663819304e+01 6.6705445474501261e+01 1.0503825703896159e+02 1 0 0
1121 1 1.4437351877771770e-01 4.9071859904542656e+01 6.4023540855354838e+01 1.0526314717405222e+02 0 0 0
5483 4 -4.5641886793288244e-01 4.8014034286370062e+01 6.4561486539428273e+01 1.0190121637634064e+02 1 0 0
5485 1 2.8389942840376098e-01 4.7844122554809395e+01 6.4208673130092080e+01 1.0287870490664932e+02 1 0 0
1118 2 -6.4646115325377906e-01 4.8015956247038417e+01 6.2053359720724593e+01 1.0519286830601439e+02 0 0 0
5479 3 8.2623674607754972e-03 4.6867622718536971e+01 6.4098442460531828e+01 1.0096407435742863e+02 1 0 0
5513 1 1.3506017555344255e-01 4.7152029701203830e+01 6.6464132972675642e+01 1.0329377119803807e+02 1 0 0
5497 1 1.9710149255619286e-01 5.1916861630768807e+01 6.2304517603162431e+01 1.0224709889807428e+02 1 0 0
5489 3 -2.3416012451099438e-01 5.2415534133381961e+01 6.5305303848693200e+01 1.0339594709343956e+02 1 0 0
5490 3 -3.2016635957953551e-02 5.2610469358247883e+01 6.3165016198157240e+01 1.0206629243407676e+02 1 0 0
5494 1 1.8635511268421234e-01 5.2628585411211503e+01 6.6352913201210015e+01 1.0296708170323291e+02 1 0 0
5496 1 1.1439323646597721e-01 5.3109813817763104e+01 6.3008074198010320e+01 1.0304126888286171e+02 1 0 0
5500 1 1.4124121924729532e-01 5.2004781092714971e+01 6.4963864146838873e+01 1.0558757833556294e+02 1 0 0
5493 1 1.1540862394766102e-01 5.3467215702635038e+01 6.4950750375555259e+01 1.0363349724565788e+02 1 0 0
5495 2 -6.2861321949989335e-01 5.3453827823365799e+01 6.3238286655898740e+01 1.0080812146534450e+02 1 0 0
5473 2 -4.7882290091864210e-01 4.6113771588360898e+01 6.3172294310634847e+01 1.0310330766779909e+02 1 0 0
5502 3 4.6352015133040531e-01 5.0517802247630812e+01 6.7167418071757666e+01 1.0607472187925264e+02 1 0 0
5471 1 1.6582517627391649e-01 4.5575737698673699e+01 6.4843367429803791e+01 1.0454588013825528e+02 1 0 0
5475 2 -5.0819842246139435e-01 4.4760837790932257e+01 6.5335229669124189e+01 1.0069486364801831e+02 1 0 0
1128 1 1.5133748136238959e-01 5.1760952020484318e+01 6.2448533223642421e+01 1.0514240927288533e+02 0 0 0
5510 1 1.3609209632105235e-01 4.8664946293618115e+01 6.5731403376005545e+01 1.0460232871196884e+02 1 0 0
5470 3 8.2481090448565456e-02 4.4483806798927702e+01 6.4161458913472671e+01 1.0149963923027870e+02 1 0 0
5469 3 -3.7123267988647766e-03 4.5224898598671970e+01 6.3981048218762190e+01 1.0390938923318213e+02 1 0 0
5472 1 1.1370857184734494e-01 4.4702585672583595e+01 6.3482146604466642e+01 1.0482547485047417e+02 1 0 0
5467 1 2.9237589699481631e-01 4.4344181863937649e+01 6.6527267638762709e+01 1.0239540300668754e+02 1 0 0
8112 3 8.3589922898271128e-03 5.0890368924290144e+01 6.1532902449855328e+01 9.8727800957907633e+01 1 1 0
8114 1 1.6775444014536442e-01 4.9142826736305089e+01 6.1568682743080537e+01 1.0005241592473284e+02 1 1 0
5466 3 -1.0848767777064755e-02 4.4136444812844843e+01 6.4589880305598015e+01 1.0297712578417654e+02 1 0 0
5508 3 3.9737839047376329e-02 4.7254352060463042e+01 6.7401235904255941e+01 1.0389858471785902e+02 1 0 0
5512 1 1.6421660032845986e-01 4.6153733631571875e+01 6.7436108451123957e+01 1.0429662089297996e+02 1 0 0
3701 1 1.7442911438328676e-01 5.3952803784129209e+01 6.5309416632247107e+01 9.9575095551204512e+01 0 1 0
5464 4 -4.4051231452942241e-01 4.3811341309432336e+01 6.6057033999902870e+01 1.0318560238740378e+02 1 0 0
5297 1 1.4728181132379015e-01 4.4811440087588025e+01 6.7587720089426639e+01 1.0067437761283288e+02 1 0 0
5501 1 3.6028536783068571e-01 5.2848383328349236e+01 6.3263687126514853e+01 1.0000439923482131e+02 1 0 0
5309 3 -7.4566782758399607e-03 5.0804041485490828e+01 6.7822601251996289e+01 1.0092962628495694e+02 1 0 0
8099 2 -6.4388089221044131e-01 4.3929435217123782e+01 6.1593810134908168e+01 9.7707384952502110e+01 1 1 0
697 3 1.2643375472339423e-02 5.0031566535167421e+01 6.7498680164230692e+01 9.7269482647263487e+01 0 0 0