#Polymer: N1I

320 atoms
326 bonds
604 angles
834 dihedrals
192 impropers

8 atom types
11 bond types
23 angle types
32 dihedral types
3 improper types

 -50.00000   50.00000 xlo xhi
 -50.00000   50.00000 ylo yhi
 -50.00000   50.00000 zlo zhi

Masses

1 1.008
2 14.007
3 12.011
4 1.008
5 12.011
6 15.999
7 15.999
8 14.007

Pair Coeffs

1    0.000 0.0000000
2    0.170 3.3000000
3    0.066 3.5000000
4    0.030 2.5000000
5    0.070 3.5500000
6    0.140 2.9000000
7    0.210 2.9600000
8    0.170 3.2500000

Bond Coeffs

1 434.0000   1.0100
2 382.0000   1.4480
3 268.0000   1.5290
4 340.0000   1.0900
5 317.0000   1.5220
6 214.0000   1.3270
7 570.0000   1.2290
8 320.0000   1.4100
9 337.0000   1.4490
10 490.0000   1.3350
11 457.0000   1.3580

Angle Coeffs

1   35.000  109.500
2   56.200  109.470
3   37.500  110.700
4   58.350  112.700
5   63.000  111.100
6   81.000  111.400
7   80.000  120.400
8   83.000  116.900
9   50.000  109.500
10   80.000  109.700
11   50.000  121.900
12   38.000  118.400
13   80.000  122.900
14   60.000  109.500
15   83.000  123.400
16   35.000  119.800
17   65.000  109.000
18   70.000  120.500
19   69.900  118.180
20   35.000  122.000
21   35.000  115.000
22   51.800  107.200
23   33.000  107.800

Dihedral Coeffs

1   -0.190   -0.417    0.418    0.000
2   -1.013   -0.709    0.473    0.000
3    2.392   -0.674    0.550    0.000
4   -2.060   -0.313    0.315    0.000
5    0.000    0.000   -0.553    0.000
6    4.669    5.124    0.000    0.000
7   -1.220   -0.126    0.422    0.000
8    6.280   -1.467    2.030    0.000
9    0.000    0.462    0.000    0.000
10    2.300    6.089    0.000    0.000
11   -2.000    5.000    0.000    0.000
12    0.000    0.000    0.198    0.000
13    0.000    0.000    0.468    0.000
14    0.650   -0.250    0.670    0.000
15    0.000   14.000    0.000    0.000
16    1.173    0.189   -1.200    0.000
17    1.300   -0.200    0.200    0.000
18    0.416   -0.128    0.695    0.000
19    1.711   -0.500    0.663    0.000
20    0.000    0.000    0.300    0.000
21    0.000    0.000    0.132    0.000
22    0.000    0.000    0.464    0.000
23    0.000    0.000    0.000    0.000
24    0.000    4.900    0.000    0.000
25    0.000    0.000    0.760    0.000
26    0.000    0.000   -0.100    0.000
27    0.000    0.000    0.560    0.000
28    0.000    0.000    0.400    0.000
29   -0.550    0.000    0.000    0.000
30    0.000    6.089    0.000    0.000
31    0.000    5.124    0.000    0.000
32    0.000    0.000    0.360    0.000

Improper Coeffs

1    0.000  -1   2
2   10.500  -1   2
3    2.500  -1   2

Atoms

1 1 1  0.4034   -4.62268  -18.44328   27.30217
2 1 2 -0.8704   -3.63981  -18.69685   27.21016
3 1 3  0.0639   -3.50068  -20.14790   27.33156
4 1 3  0.0654   -3.08718  -18.19017   25.95345
5 1 3 -0.2395   -3.75437  -20.56666   28.77182
6 1 4  0.0781   -4.22231  -20.64658   26.67461
7 1 4  0.0781   -2.49705  -20.47984   27.04110
8 1 4  0.0878   -4.73047  -20.22348   29.12896
9 1 4  0.0878   -2.99028  -20.15195   29.43632
10 1 4  0.0878   -3.72558  -21.65785   28.86225
11 1 3 -0.1955   -3.81305  -16.93514   25.45997
12 1 4  0.0873   -3.10866  -18.95145   25.16421
13 1 4  0.0873   -2.04899  -17.92779   26.13851
14 1 3 -0.1742   -3.02567  -16.23973   24.33849
15 1 4  0.1108   -3.95435  -16.22750   26.28620
16 1 4  0.1108   -4.81205  -17.22121   25.10990
17 1 5  0.4385   -3.81695  -15.15279   23.64362
18 1 4  0.1331   -2.73966  -16.97208   23.57585
19 1 4  0.1331   -2.12306  -15.78889   24.76605
20 1 6 -0.3794   -3.01064  -14.43560   22.79605
21 1 7 -0.4431   -5.01926  -14.97513   23.78182
22 1 3 -0.0089   -3.70268  -13.46815   21.96655
23 1 3  0.1658   -2.90343  -13.17897   20.67799
24 1 4  0.1232   -4.66406  -13.90363   21.66404
25 1 4  0.1232   -3.88948  -12.56351   22.55269
26 1 8 -1.0793   -2.29276  -11.83944   20.55696
27 1 4  0.1178   -2.10419  -13.91667   20.54620
28 1 4  0.1178   -3.59169  -13.31359   19.83621
29 1 5  0.7462   -2.81235  -10.94164   19.62457
30 1 1  0.5241   -1.31091  -11.76803   20.80119
31 1 6 -0.3413   -1.98959   -9.85608   19.34607
32 1 7 -0.4968   -3.86349  -11.14085   19.07794
33 1 3  0.0339   -2.26330   -9.14426   18.08192
34 1 4  0.1575   -1.86735   -9.78767   17.28871
35 1 3 -0.0330   -3.73167   -8.79815   17.84642
36 1 3  0.0330   -1.66701   -7.71879   17.91778
37 1 4  0.1258   -4.22007   -8.49796   18.78147
38 1 4  0.1258   -4.28291   -9.63623   17.41587
39 1 6 -0.3563   -3.81316   -7.70926   16.90446
40 1 4  0.1648   -1.67709   -7.19082   18.87859
41 1 6 -0.3542   -0.35997   -7.61992   17.36661
42 1 3  0.0261   -2.54588   -7.04361   16.85840
43 1 3 -0.0410   -0.45416   -7.71932   15.93038
44 1 4  0.1603   -2.69467   -5.98070   17.07432
45 1 3  0.0842   -1.83053   -7.23003   15.48701
46 1 4  0.1432    0.38982   -7.18737   15.50830
47 1 4  0.1432   -0.35281   -8.78450   15.68575
48 1 4  0.1420   -2.33792   -8.01327   14.91049
49 1 6 -0.4005   -1.90625   -6.02268   14.60920
50 1 5  0.7654   -1.02166   -5.78894   13.57514
51 1 8 -1.0954   -1.47638   -4.82715   12.66245
52 1 7 -0.4742    0.05987   -6.35108   13.45213
53 1 3  0.1635   -0.57028   -4.17629   11.67040
54 1 1  0.5096   -2.32799   -4.35927   12.94363
55 1 3  0.1017   -1.15171   -3.52237   10.34192
56 1 4  0.1244    0.19540   -4.90667   11.38400
57 1 4  0.1244   -0.03564   -3.39679   12.22751
58 1 6 -0.4858   -0.03703   -2.86941    9.59454
59 1 4  0.0978   -1.90130   -2.76318   10.57755
60 1 4  0.0978   -1.57893   -4.29933    9.70169
61 1 5  0.5004    0.05323   -2.02778    8.51724
62 1 3 -0.2159   -1.13599   -1.72144    7.61595
63 1 7 -0.4016    1.12822   -1.46782    8.30285
64 1 3 -0.1485   -0.83707   -1.47390    6.06763
65 1 4  0.1162   -1.80572   -2.58724    7.67427
66 1 4  0.1162   -1.66097   -0.85554    8.03112
67 1 3 -0.0160   -0.27316   -0.09100    5.54508
68 1 4  0.1080   -1.79332   -1.63867    5.55423
69 1 4  0.1080   -0.16149   -2.26484    5.71714
70 1 8 -0.4830   -0.75482    0.22974    4.13662
71 1 4  0.1000   -0.62466    0.70754    6.20667
72 1 4  0.1000    0.82236   -0.11394    5.56805
73 1 5  0.0798   -0.18909    1.20614    3.47843
74 1 3 -0.1355   -0.75623    1.76007    2.10542
75 1 4  0.1140    0.64257    1.78128    3.92209
76 1 3 -0.1629    0.19772    2.45253    1.04420
77 1 4  0.1076   -1.30211    0.94510    1.61716
78 1 4  0.1076   -1.49474    2.51474    2.40278
79 1 3 -0.1680   -0.52708    3.30247   -0.10517
80 1 4  0.0916    0.79753    1.67005    0.56605
81 1 4  0.0916    0.89490    3.11181    1.57383
82 1 3 -0.1331    0.38415    3.96163   -1.22269
83 1 4  0.0882   -1.25745    2.65480   -0.60397
84 1 4  0.0882   -1.09672    4.10296    0.38118
85 1 5  0.0529   -0.26877    5.01764   -2.20082
86 1 4  0.1125    0.85420    3.17921   -1.82911
87 1 4  0.1125    1.18263    4.50789   -0.70787
88 1 8 -0.4306    0.21357    5.32554   -3.37957
89 1 4  0.1107   -1.12177    5.58257   -1.78518
90 1 3 -0.0319   -0.48177    6.45164   -4.12432
91 1 3 -0.1603    0.12658    6.75612   -5.55173
92 1 4  0.0906   -1.54050    6.19803   -4.24294
93 1 4  0.0906   -0.40028    7.36218   -3.51955
94 1 3 -0.1615   -0.50580    7.96750   -6.34880
95 1 4  0.1154    1.18530    6.98685   -5.42152
96 1 4  0.1154    0.07310    5.84918   -6.16556
97 1 5  0.4395   -0.04190    8.18453   -7.82878
98 1 4  0.1240   -1.59185    7.83635   -6.37452
99 1 4  0.1240   -0.26886    8.88874   -5.80435
100 1 6 -0.3855   -0.63451    9.29894   -8.41635
101 1 7 -0.4348    0.74208    7.45141   -8.41793
102 1 3  0.0036   -0.37417    9.56413   -9.85518
103 1 3  0.1952   -0.87088   10.98144  -10.33633
104 1 4  0.1103    0.69697    9.47957  -10.04318
105 1 4  0.1103   -0.88522    8.78570  -10.43251
106 1 8 -1.1301   -0.48402   11.40799  -11.71201
107 1 4  0.1147   -1.95587   11.06031  -10.21924
108 1 4  0.1147   -0.43000   11.73268   -9.67094
109 1 5  0.7761   -1.20466   12.26473  -12.54271
110 1 1  0.5206    0.51472   11.40186  -11.91309
111 1 6 -0.3359   -0.40221   12.75808  -13.53245
112 1 7 -0.5091   -2.39007   12.53196  -12.43057
113 1 3  0.0430   -0.81320   13.43670  -14.77053
114 1 4  0.1376    0.07154   13.29961  -15.38755
115 1 3 -0.0270   -1.95953   12.84283  -15.57170
116 1 3  0.0435   -1.06913   14.94571  -14.82516
117 1 4  0.1357   -1.56934   12.10206  -16.27982
118 1 4  0.1357   -2.72795   12.35189  -14.97363
119 1 6 -0.3589   -2.56760   13.89602  -16.35607
120 1 4  0.1638   -1.58290   15.30172  -13.92750
121 1 6 -0.3642    0.13211   15.71350  -15.01654
122 1 3  0.0275   -1.88547   15.13586  -16.10485
123 1 3 -0.0351    0.33423   15.95257  -16.42791
124 1 4  0.1688   -2.62697   15.93646  -16.00697
125 1 3  0.0684   -0.87639   15.47324  -17.22121
126 1 4  0.1384    0.57239   17.00899  -16.57887
127 1 4  0.1384    1.20742   15.37047  -16.72571
128 1 4  0.1295   -0.63991   14.57386  -17.80413
129 1 6 -0.3859   -1.39130   16.46465  -18.17369
130 1 5  0.7627   -0.56983   16.83798  -19.20802
131 1 8 -1.0871   -1.22563   17.64643  -20.11519
132 1 7 -0.4792    0.60615   16.50794  -19.30384
133 1 3  0.1629   -0.53141   18.34805  -21.20594
134 1 1  0.5176   -2.14936   17.94902  -19.83574
135 1 3  0.0051   -1.41081   18.84111  -22.37964
136 1 4  0.1169    0.25165   17.69231  -21.60061
137 1 4  0.1169   -0.01554   19.20612  -20.75832
138 1 6 -0.3751   -0.60938   19.63438  -23.29574
139 1 4  0.1123   -1.82260   17.98264  -22.92260
140 1 4  0.1123   -2.23375   19.45663  -22.00041
141 1 5  0.4486   -1.27059   20.21055  -24.35021
142 1 3 -0.1794   -0.30330   21.00208  -25.22429
143 1 7 -0.4432   -2.47791   20.13416  -24.53040
144 1 3 -0.1796   -0.90982   21.52338  -26.54283
145 1 4  0.1323    0.06172   21.84626  -24.62921
146 1 4  0.1323    0.54366   20.35237  -25.47128
147 1 3  0.0442   -0.00708   22.58453  -27.20193
148 1 4  0.1154   -1.90212   21.95705  -26.36690
149 1 4  0.1154   -1.05468   20.67641  -27.22581
150 1 2 -0.8209   -0.41965   22.87616  -28.57960
151 1 4  0.0808    1.02913   22.22731  -27.20939
152 1 4  0.0808   -0.04350   23.50153  -26.60079
153 1 3  0.0421    0.38701   23.94972  -29.16878
154 1 1  0.3883   -1.40587   23.13598  -28.60744
155 1 3 -0.2410    0.07765   24.11012  -30.65213
156 1 4  0.0797    1.45555   23.72890  -29.06331
157 1 4  0.0797    0.18673   24.89883  -28.65789
158 1 4  0.0887    0.30053   23.19152  -31.20555
159 1 4  0.0887    0.69054   24.91166  -31.08022
160 1 4  0.0887   -0.97318   24.36786  -30.81993
161 1 1  0.4034   -0.79698  -19.69942   28.48210
162 1 2 -0.8704    0.16747  -19.83597   28.79055
163 1 3  0.0639    0.37710  -21.23834   29.14684
164 1 3  0.0654    1.12272  -19.35987   27.78291
165 1 3 -0.2395   -0.30928  -21.57016   30.46484
166 1 4  0.0781   -0.02139  -21.88534   28.35617
167 1 4  0.0781    1.44496  -21.45638   29.25572
168 1 4  0.0878   -1.38852  -21.40378   30.42003
169 1 4  0.0878    0.09577  -20.96496   31.28283
170 1 4  0.0878   -0.14922  -22.62396   30.71727
171 1 3 -0.1955    0.43834  -18.42555   26.78166
172 1 4  0.0873    1.56311  -20.19485   27.22462
173 1 4  0.0873    1.93275  -18.83566   28.29974
174 1 3 -0.1742    1.40272  -17.67887   25.84431
175 1 4  0.1108   -0.16857  -17.68332   27.31584
176 1 4  0.1108   -0.24593  -19.04634   26.19122
177 1 5  0.4385    0.68629  -17.14617   24.61156
178 1 4  0.1331    2.19593  -18.34907   25.49811
179 1 4  0.1331    1.85667  -16.84624   26.39175
180 1 6 -0.3794    1.31479  -16.05235   24.07391
181 1 7 -0.4431   -0.30495  -17.67829   24.12657
182 1 3 -0.0089    0.71882  -15.51702   22.85727
183 1 3  0.1658    1.79760  -15.03105   21.86518
184 1 4  0.1232    0.17028  -16.31948   22.34600
185 1 4  0.1232    0.00861  -14.72974   23.12515
186 1 8 -1.0793    2.23034  -13.62519   21.90522
187 1 4  0.1178    2.70303  -15.63180   21.99970
188 1 4  0.1178    1.42623  -15.21161   20.84838
189 1 5  0.7462    1.62474  -12.69110   21.09376
190 1 1  0.5241    3.22742  -13.47397   21.97868
191 1 6 -0.3413    2.53034  -11.78191   20.60141
192 1 7 -0.4968    0.44271  -12.74668   20.77853
193 1 3  0.0339    2.28497  -11.21055   19.27556
194 1 4  0.1575    2.58264  -11.98040   18.55451
195 1 3 -0.0330    0.87351  -10.73880   19.01502
196 1 3  0.0330    3.05915   -9.91173   18.93688
197 1 4  0.1258    0.46981  -10.19715   19.87786
198 1 4  0.1258    0.20302  -11.56240   18.75976
199 1 6 -0.3563    0.93734   -9.86897   17.88285
200 1 4  0.1648    3.23478   -9.31901   19.84408
201 1 6 -0.3542    4.31725  -10.16153   18.30603
202 1 3  0.0261    2.19152   -9.16027   17.91905
203 1 3 -0.0410    4.29274   -9.68737   16.93538
204 1 4  0.1603    2.01261   -8.12681   18.23708
205 1 3  0.0842    2.88687   -9.23966   16.54333
206 1 4  0.1432    5.05661   -8.91655   16.82719
207 1 4  0.1432    4.57848  -10.54857   16.32158
208 1 4  0.1420    2.40083  -10.03815   15.97018
209 1 6 -0.4005    2.70818   -8.03487   15.68200
210 1 5  0.7654    3.55079   -7.74512   14.62498
211 1 8 -1.0954    3.03731   -6.80564   13.71167
212 1 7 -0.4742    4.64766   -8.27191   14.49419
213 1 3  0.1635    3.90510   -6.07214   12.73445
214 1 1  0.5096    2.07744   -6.50300   13.86355
215 1 3  0.1017    3.30158   -5.39258   11.41911
216 1 4  0.1244    4.71711   -6.74485   12.43715
217 1 4  0.1244    4.38577   -5.27621   13.31827
218 1 6 -0.4858    4.42580   -4.86760   10.57430
219 1 4  0.0978    2.65157   -4.55365   11.68156
220 1 4  0.0978    2.75629   -6.13242   10.82745
221 1 5  0.5004    4.57324   -4.20777    9.38068
222 1 3 -0.2159    3.39800   -3.53582    8.66492
223 1 7 -0.4016    5.70921   -4.08900    8.91781
224 1 3 -0.1485    3.54321   -3.26558    7.08324
225 1 4  0.1162    2.54219   -4.20945    8.79140
226 1 4  0.1162    3.19028   -2.59644    9.18358
227 1 3 -0.0160    4.05454   -1.86450    6.53357
228 1 4  0.1080    2.53945   -3.41163    6.66268
229 1 4  0.1080    4.17231   -4.05139    6.64740
230 1 8 -0.4830    3.59299   -1.57260    5.10119
231 1 4  0.1000    3.65232   -1.07087    7.17222
232 1 4  0.1000    5.14856   -1.83614    6.58032
233 1 5  0.0798    4.12843   -0.56197    4.46408
234 1 3 -0.1355    3.57142    0.00432    3.08112
235 1 4  0.1140    4.92576    0.03979    4.93508
236 1 3 -0.1629    4.53977    0.69510    2.01962
237 1 4  0.1076    3.01033   -0.79854    2.59008
238 1 4  0.1076    2.84619    0.77078    3.38020
239 1 3 -0.1680    3.84205    1.56275    0.85333
240 1 4  0.0916    5.14220   -0.09129    1.55030
241 1 4  0.0916    5.23433    1.34903    2.55934
242 1 3 -0.1331    4.77178    2.17797   -0.28860
243 1 4  0.0882    3.08896    0.93263    0.36629
244 1 4  0.0882    3.30416    2.38877    1.33265
245 1 5  0.0529    4.17882    3.28051   -1.27496
246 1 4  0.1125    5.17961    1.36578   -0.90003
247 1 4  0.1125    5.61352    2.66928    0.21413
248 1 8 -0.4306    4.61733    3.51180   -2.49009
249 1 4  0.1107    3.41874    3.94296   -0.82766
250 1 3 -0.0319    3.98812    4.67925   -3.25377
251 1 3 -0.1603    4.62466    4.96455   -4.69415
252 1 4  0.0906    2.92337    4.46209   -3.38737
253 1 4  0.0906    4.09033    5.58569   -2.64589
254 1 3 -0.1615    4.02004    6.19911   -5.51987
255 1 4  0.1154    5.70246    5.12594   -4.57396
256 1 4  0.1154    4.51379    4.05857   -5.30175
257 1 5  0.4395    4.47782    6.44004   -7.01593
258 1 4  0.1240    2.94530    6.03148   -5.56752
259 1 4  0.1240    4.22386    7.11892   -4.96117
260 1 6 -0.3855    3.93036    7.58665   -7.62035
261 1 7 -0.4348    5.23028    5.68020   -7.61537
262 1 3  0.0036    4.18453    7.78298   -9.08768
263 1 3  0.1952    3.70161    9.16569   -9.74505
264 1 4  0.1103    5.26481    7.69716   -9.25090
265 1 4  0.1103    3.68016    6.96141   -9.60674
266 1 8 -1.1301    3.81226    9.29805  -11.25739
267 1 4  0.1147    2.67866    9.39231   -9.44427
268 1 4  0.1147    4.31753    9.97468   -9.33460
269 1 5  0.7761    3.28082   10.29115  -12.09501
270 1 1  0.5206    4.51557    8.73437  -11.71510
271 1 6 -0.3359    3.83599   10.22734  -13.35111
272 1 7 -0.5091    2.42108   11.10151  -11.77870
273 1 3  0.0430    3.49832   10.99754  -14.58247
274 1 4  0.1376    4.03373   10.43157  -15.35616
275 1 3 -0.0270    2.04675   11.03655  -15.02020
276 1 3  0.0435    3.93858   12.46419  -14.75850
277 1 4  0.1357    1.75514   10.11546  -15.53453
278 1 4  0.1357    1.35244   11.18313  -14.19513
279 1 6 -0.3589    1.90425   12.11768  -15.96928
280 1 4  0.1638    3.95207   13.00252  -13.80551
281 1 6 -0.3642    5.24139   12.55843  -15.35832
282 1 3  0.0275    2.95501   13.08481  -15.76167
283 1 3 -0.0351    5.16507   13.27022  -16.61636
284 1 4  0.1688    2.51287   14.00498  -15.36400
285 1 3  0.0684    3.71719   13.35049  -17.07999
286 1 4  0.1384    5.63379   14.24848  -16.48641
287 1 4  0.1384    5.75486   12.70080  -17.34405
288 1 4  0.1295    3.49570   12.53555  -17.77975
289 1 6 -0.3859    3.28780   14.57622  -17.78916
290 1 5  0.7627    4.09395   15.15909  -18.74084
291 1 8 -1.0871    3.42992   16.09428  -19.52228
292 1 7 -0.4792    5.27519   14.87794  -18.88968
293 1 3  0.1629    4.13335   17.02472  -20.43046
294 1 1  0.5176    2.44632   16.25969  -19.30600
295 1 3  0.0051    3.35897   17.51646  -21.68439
296 1 4  0.1169    5.08223   16.57806  -20.74679
297 1 4  0.1169    4.40072   17.90309  -19.82982
298 1 6 -0.3751    4.20107   18.39220  -22.49773
299 1 4  0.1123    3.05052   16.66387  -22.29904
300 1 4  0.1123    2.47519   18.07997  -21.37166
301 1 5  0.4486    3.60208   19.01314  -23.56922
302 1 3 -0.1794    4.59385   19.92368  -24.29292
303 1 7 -0.4432    2.42254   18.89193  -23.86853
304 1 3 -0.1796    4.11470   20.46512  -25.65880
305 1 4  0.1323    4.80984   20.76463  -23.62493
306 1 4  0.1323    5.51887   19.35877  -24.45648
307 1 3  0.0442    5.01425   21.61577  -26.15799
308 1 4  0.1154    3.08034   20.82388  -25.59281
309 1 4  0.1154    4.11626   19.64452  -26.38765
310 1 2 -0.8209    4.77551   21.94320  -27.56889
311 1 4  0.0808    6.06539   21.33041  -26.03540
312 1 4  0.0808    4.83126   22.50115  -25.53650
313 1 3  0.0421    5.59518   23.08252  -27.99913
314 1 1  0.3883    3.79001   22.15062  -27.73070
315 1 3 -0.2410    5.49800   23.29272  -29.50530
316 1 4  0.0797    6.64853   22.91417  -27.74627
317 1 4  0.0797    5.26961   23.99742  -27.49013
318 1 4  0.0887    5.85282   22.41275  -30.05250
319 1 4  0.0887    6.12110   24.14271  -29.80739
320 1 4  0.0887    4.47060   23.50441  -29.81860

Bonds

1 1 2 1
2 2 3 2
3 2 4 2
4 3 5 3
5 4 6 3
6 4 7 3
7 4 8 5
8 4 9 5
9 4 10 5
10 3 11 4
11 4 12 4
12 4 13 4
13 3 14 11
14 4 15 11
15 4 16 11
16 5 17 14
17 4 18 14
18 4 19 14
19 6 20 17
20 7 21 17
21 8 22 20
22 3 23 22
23 4 24 22
24 4 25 22
25 9 26 23
26 4 27 23
27 4 28 23
28 10 29 26
29 1 30 26
30 6 31 29
31 7 32 29
32 8 33 31
33 4 34 33
34 3 35 33
35 3 36 33
36 4 37 35
37 4 38 35
38 8 39 35
39 4 40 36
40 8 41 36
41 3 42 36
42 8 43 41
43 4 44 42
44 3 45 42
45 4 46 43
46 4 47 43
47 4 48 45
48 8 49 45
49 6 50 49
50 10 51 50
51 7 52 50
52 9 53 51
53 1 54 51
54 3 55 53
55 4 56 53
56 4 57 53
57 8 58 55
58 4 59 55
59 4 60 55
60 6 61 58
61 5 62 61
62 7 63 61
63 3 64 62
64 4 65 62
65 4 66 62
66 3 67 64
67 4 68 64
68 4 69 64
69 9 70 67
70 4 71 67
71 4 72 67
72 11 73 70
73 5 74 73
74 4 75 73
75 3 76 74
76 4 77 74
77 4 78 74
78 3 79 76
79 4 80 76
80 4 81 76
81 3 82 79
82 4 83 79
83 4 84 79
84 5 85 82
85 4 86 82
86 4 87 82
87 11 88 85
88 4 89 85
89 9 90 88
90 3 91 90
91 4 92 90
92 4 93 90
93 3 94 91
94 4 95 91
95 4 96 91
96 5 97 94
97 4 98 94
98 4 99 94
99 6 100 97
100 7 101 97
101 8 102 100
102 3 103 102
103 4 104 102
104 4 105 102
105 9 106 103
106 4 107 103
107 4 108 103
108 10 109 106
109 1 110 106
110 6 111 109
111 7 112 109
112 8 113 111
113 4 114 113
114 3 115 113
115 3 116 113
116 4 117 115
117 4 118 115
118 8 119 115
119 4 120 116
120 8 121 116
121 3 122 116
122 8 123 121
123 4 124 122
124 3 125 122
125 4 126 123
126 4 127 123
127 4 128 125
128 8 129 125
129 6 130 129
130 10 131 130
131 7 132 130
132 9 133 131
133 1 134 131
134 3 135 133
135 4 136 133
136 4 137 133
137 8 138 135
138 4 139 135
139 4 140 135
140 6 141 138
141 5 142 141
142 7 143 141
143 3 144 142
144 4 145 142
145 4 146 142
146 3 147 144
147 4 148 144
148 4 149 144
149 2 150 147
150 4 151 147
151 4 152 147
152 2 153 150
153 1 154 150
154 3 155 153
155 4 156 153
156 4 157 153
157 4 158 155
158 4 159 155
159 4 160 155
160 8 42 39
161 3 45 43
162 8 122 119
163 3 125 123
164 1 162 161
165 2 163 162
166 2 164 162
167 3 165 163
168 4 166 163
169 4 167 163
170 4 168 165
171 4 169 165
172 4 170 165
173 3 171 164
174 4 172 164
175 4 173 164
176 3 174 171
177 4 175 171
178 4 176 171
179 5 177 174
180 4 178 174
181 4 179 174
182 6 180 177
183 7 181 177
184 8 182 180
185 3 183 182
186 4 184 182
187 4 185 182
188 9 186 183
189 4 187 183
190 4 188 183
191 10 189 186
192 1 190 186
193 6 191 189
194 7 192 189
195 8 193 191
196 4 194 193
197 3 195 193
198 3 196 193
199 4 197 195
200 4 198 195
201 8 199 195
202 4 200 196
203 8 201 196
204 3 202 196
205 8 203 201
206 4 204 202
207 3 205 202
208 4 206 203
209 4 207 203
210 4 208 205
211 8 209 205
212 6 210 209
213 10 211 210
214 7 212 210
215 9 213 211
216 1 214 211
217 3 215 213
218 4 216 213
219 4 217 213
220 8 218 215
221 4 219 215
222 4 220 215
223 6 221 218
224 5 222 221
225 7 223 221
226 3 224 222
227 4 225 222
228 4 226 222
229 3 227 224
230 4 228 224
231 4 229 224
232 9 230 227
233 4 231 227
234 4 232 227
235 11 233 230
236 5 234 233
237 4 235 233
238 3 236 234
239 4 237 234
240 4 238 234
241 3 239 236
242 4 240 236
243 4 241 236
244 3 242 239
245 4 243 239
246 4 244 239
247 5 245 242
248 4 246 242
249 4 247 242
250 11 248 245
251 4 249 245
252 9 250 248
253 3 251 250
254 4 252 250
255 4 253 250
256 3 254 251
257 4 255 251
258 4 256 251
259 5 257 254
260 4 258 254
261 4 259 254
262 6 260 257
263 7 261 257
264 8 262 260
265 3 263 262
266 4 264 262
267 4 265 262
268 9 266 263
269 4 267 263
270 4 268 263
271 10 269 266
272 1 270 266
273 6 271 269
274 7 272 269
275 8 273 271
276 4 274 273
277 3 275 273
278 3 276 273
279 4 277 275
280 4 278 275
281 8 279 275
282 4 280 276
283 8 281 276
284 3 282 276
285 8 283 281
286 4 284 282
287 3 285 282
288 4 286 283
289 4 287 283
290 4 288 285
291 8 289 285
292 6 290 289
293 10 291 290
294 7 292 290
295 9 293 291
296 1 294 291
297 3 295 293
298 4 296 293
299 4 297 293
300 8 298 295
301 4 299 295
302 4 300 295
303 6 301 298
304 5 302 301
305 7 303 301
306 3 304 302
307 4 305 302
308 4 306 302
309 3 307 304
310 4 308 304
311 4 309 304
312 2 310 307
313 4 311 307
314 4 312 307
315 2 313 310
316 1 314 310
317 3 315 313
318 4 316 313
319 4 317 313
320 4 318 315
321 4 319 315
322 4 320 315
323 8 202 199
324 3 205 203
325 8 282 279
326 3 285 283

Angles

1 1 1 2 3
2 1 1 2 4
3 2 2 3 5
4 1 2 3 6
5 1 2 3 7
6 3 3 5 8
7 3 3 5 9
8 3 3 5 10
9 2 2 4 11
10 1 2 4 12
11 1 2 4 13
12 4 4 11 14
13 3 4 11 15
14 3 4 11 16
15 5 11 14 17
16 3 11 14 18
17 3 11 14 19
18 6 14 17 20
19 7 14 17 21
20 8 17 20 22
21 9 20 22 23
22 1 20 22 24
23 1 20 22 25
24 10 22 23 26
25 3 22 23 27
26 3 22 23 28
27 11 23 26 29
28 12 23 26 30
29 6 26 29 31
30 13 26 29 32
31 8 29 31 33
32 1 31 33 34
33 9 31 33 35
34 9 31 33 36
35 3 33 35 37
36 3 33 35 38
37 9 33 35 39
38 3 33 36 40
39 9 33 36 41
40 4 33 36 42
41 14 36 41 43
42 3 36 42 44
43 4 36 42 45
44 1 41 43 46
45 1 41 43 47
46 3 42 45 48
47 9 42 45 49
48 8 45 49 50
49 6 49 50 51
50 15 49 50 52
51 11 50 51 53
52 16 50 51 54
53 10 51 53 55
54 1 51 53 56
55 1 51 53 57
56 9 53 55 58
57 3 53 55 59
58 3 53 55 60
59 8 55 58 61
60 6 58 61 62
61 15 58 61 63
62 5 61 62 64
63 1 61 62 65
64 1 61 62 66
65 4 62 64 67
66 3 62 64 68
67 3 62 64 69
68 17 64 67 70
69 3 64 67 71
70 3 64 67 72
71 18 67 70 73
72 19 70 73 74
73 20 70 73 75
74 5 73 74 76
75 1 73 74 77
76 1 73 74 78
77 4 74 76 79
78 3 74 76 80
79 3 74 76 81
80 4 76 79 82
81 3 76 79 83
82 3 76 79 84
83 5 79 82 85
84 3 79 82 86
85 3 79 82 87
86 19 82 85 88
87 21 82 85 89
88 18 85 88 90
89 17 88 90 91
90 1 88 90 92
91 1 88 90 93
92 4 90 91 94
93 3 90 91 95
94 3 90 91 96
95 5 91 94 97
96 3 91 94 98
97 3 91 94 99
98 6 94 97 100
99 7 94 97 101
100 8 97 100 102
101 9 100 102 103
102 1 100 102 104
103 1 100 102 105
104 10 102 103 106
105 3 102 103 107
106 3 102 103 108
107 11 103 106 109
108 12 103 106 110
109 6 106 109 111
110 13 106 109 112
111 8 109 111 113
112 1 111 113 114
113 9 111 113 115
114 9 111 113 116
115 3 113 115 117
116 3 113 115 118
117 9 113 115 119
118 3 113 116 120
119 9 113 116 121
120 4 113 116 122
121 14 116 121 123
122 3 116 122 124
123 4 116 122 125
124 1 121 123 126
125 1 121 123 127
126 3 122 125 128
127 9 122 125 129
128 8 125 129 130
129 6 129 130 131
130 15 129 130 132
131 11 130 131 133
132 16 130 131 134
133 10 131 133 135
134 1 131 133 136
135 1 131 133 137
136 9 133 135 138
137 3 133 135 139
138 3 133 135 140
139 8 135 138 141
140 6 138 141 142
141 15 138 141 143
142 5 141 142 144
143 1 141 142 145
144 1 141 142 146
145 4 142 144 147
146 3 142 144 148
147 3 142 144 149
148 2 144 147 150
149 3 144 147 151
150 3 144 147 152
151 22 147 150 153
152 1 147 150 154
153 2 150 153 155
154 1 150 153 156
155 1 150 153 157
156 3 153 155 158
157 3 153 155 159
158 3 153 155 160
159 3 40 36 42
160 15 100 97 101
161 1 38 35 39
162 1 117 115 119
163 1 150 147 152
164 3 125 123 126
165 23 86 82 87
166 23 148 144 149
167 3 125 123 127
168 3 120 116 122
169 3 94 91 95
170 7 142 141 143
171 16 29 26 30
172 1 26 23 27
173 23 46 43 47
174 1 40 36 41
175 9 41 43 45
176 1 119 122 124
177 23 98 94 99
178 23 117 115 118
179 9 36 42 39
180 1 150 147 151
181 3 67 64 69
182 9 39 42 45
183 1 26 23 28
184 3 155 153 157
185 3 103 102 105
186 23 59 55 60
187 1 138 135 139
188 3 14 11 16
189 3 23 22 24
190 1 106 103 107
191 3 147 144 149
192 3 76 74 77
193 23 158 155 160
194 23 71 67 72
195 12 133 131 134
196 3 124 122 125
197 23 27 23 28
198 13 51 50 52
199 9 123 125 129
200 3 79 76 81
201 3 64 62 66
202 20 88 85 89
203 3 55 53 57
204 23 92 90 93
205 3 34 33 35
206 23 159 155 160
207 1 118 115 119
208 1 17 14 18
209 1 85 82 87
210 9 43 45 49
211 3 114 113 115
212 1 70 67 71
213 3 43 45 48
214 23 151 147 152
215 23 107 103 108
216 3 147 144 148
217 1 138 135 140
218 9 121 123 125
219 3 23 22 25
220 3 155 153 156
221 23 126 123 127
222 3 45 43 46
223 3 64 62 65
224 23 37 35 38
225 1 58 55 59
226 16 109 106 110
227 3 79 76 80
228 13 131 130 132
229 23 77 74 78
230 23 95 91 96
231 23 145 142 146
232 3 135 133 137
233 3 5 3 6
234 1 128 125 129
235 15 20 17 21
236 3 91 90 93
237 4 35 33 36
238 15 31 29 32
239 3 44 42 45
240 23 139 135 140
241 23 24 22 25
242 4 42 45 43
243 3 123 125 128
244 23 18 14 19
245 3 55 53 56
246 21 74 73 75
247 23 15 11 16
248 23 68 64 69
249 3 11 4 12
250 3 5 3 7
251 4 122 125 123
252 3 103 102 104
253 4 115 113 116
254 15 111 109 112
255 3 144 142 145
256 3 144 142 146
257 23 83 79 84
258 23 9 5 10
259 9 41 36 42
260 14 35 39 42
261 23 80 76 81
262 3 135 133 136
263 23 156 153 157
264 23 8 5 10
265 3 67 64 68
266 23 6 3 7
267 1 97 94 98
268 1 37 35 39
269 9 119 122 125
270 3 114 113 116
271 1 106 103 108
272 23 56 53 57
273 23 8 5 9
274 3 45 43 47
275 23 104 102 105
276 3 94 91 96
277 1 48 45 49
278 3 11 4 13
279 3 82 79 84
280 1 39 42 44
281 9 121 116 122
282 1 70 67 72
283 3 14 11 15
284 9 116 122 119
285 1 58 55 60
286 7 62 61 63
287 23 65 62 66
288 1 17 14 19
289 12 53 51 54
290 3 76 74 78
291 3 82 79 83
292 14 115 119 122
293 22 3 2 4
294 3 34 33 36
295 1 97 94 99
296 23 12 4 13
297 1 153 150 154
298 23 158 155 159
299 3 91 90 92
300 1 120 116 121
301 1 85 82 86
302 23 136 133 137
303 1 161 162 163
304 1 161 162 164
305 2 162 163 165
306 1 162 163 166
307 1 162 163 167
308 3 163 165 168
309 3 163 165 169
310 3 163 165 170
311 2 162 164 171
312 1 162 164 172
313 1 162 164 173
314 4 164 171 174
315 3 164 171 175
316 3 164 171 176
317 5 171 174 177
318 3 171 174 178
319 3 171 174 179
320 6 174 177 180
321 7 174 177 181
322 8 177 180 182
323 9 180 182 183
324 1 180 182 184
325 1 180 182 185
326 10 182 183 186
327 3 182 183 187
328 3 182 183 188
329 11 183 186 189
330 12 183 186 190
331 6 186 189 191
332 13 186 189 192
333 8 189 191 193
334 1 191 193 194
335 9 191 193 195
336 9 191 193 196
337 3 193 195 197
338 3 193 195 198
339 9 193 195 199
340 3 193 196 200
341 9 193 196 201
342 4 193 196 202
343 14 196 201 203
344 3 196 202 204
345 4 196 202 205
346 1 201 203 206
347 1 201 203 207
348 3 202 205 208
349 9 202 205 209
350 8 205 209 210
351 6 209 210 211
352 15 209 210 212
353 11 210 211 213
354 16 210 211 214
355 10 211 213 215
356 1 211 213 216
357 1 211 213 217
358 9 213 215 218
359 3 213 215 219
360 3 213 215 220
361 8 215 218 221
362 6 218 221 222
363 15 218 221 223
364 5 221 222 224
365 1 221 222 225
366 1 221 222 226
367 4 222 224 227
368 3 222 224 228
369 3 222 224 229
370 17 224 227 230
371 3 224 227 231
372 3 224 227 232
373 18 227 230 233
374 19 230 233 234
375 20 230 233 235
376 5 233 234 236
377 1 233 234 237
378 1 233 234 238
379 4 234 236 239
380 3 234 236 240
381 3 234 236 241
382 4 236 239 242
383 3 236 239 243
384 3 236 239 244
385 5 239 242 245
386 3 239 242 246
387 3 239 242 247
388 19 242 245 248
389 21 242 245 249
390 18 245 248 250
391 17 248 250 251
392 1 248 250 252
393 1 248 250 253
394 4 250 251 254
395 3 250 251 255
396 3 250 251 256
397 5 251 254 257
398 3 251 254 258
399 3 251 254 259
400 6 254 257 260
401 7 254 257 261
402 8 257 260 262
403 9 260 262 263
404 1 260 262 264
405 1 260 262 265
406 10 262 263 266
407 3 262 263 267
408 3 262 263 268
409 11 263 266 269
410 12 263 266 270
411 6 266 269 271
412 13 266 269 272
413 8 269 271 273
414 1 271 273 274
415 9 271 273 275
416 9 271 273 276
417 3 273 275 277
418 3 273 275 278
419 9 273 275 279
420 3 273 276 280
421 9 273 276 281
422 4 273 276 282
423 14 276 281 283
424 3 276 282 284
425 4 276 282 285
426 1 281 283 286
427 1 281 283 287
428 3 282 285 288
429 9 282 285 289
430 8 285 289 290
431 6 289 290 291
432 15 289 290 292
433 11 290 291 293
434 16 290 291 294
435 10 291 293 295
436 1 291 293 296
437 1 291 293 297
438 9 293 295 298
439 3 293 295 299
440 3 293 295 300
441 8 295 298 301
442 6 298 301 302
443 15 298 301 303
444 5 301 302 304
445 1 301 302 305
446 1 301 302 306
447 4 302 304 307
448 3 302 304 308
449 3 302 304 309
450 2 304 307 310
451 3 304 307 311
452 3 304 307 312
453 22 307 310 313
454 1 307 310 314
455 2 310 313 315
456 1 310 313 316