#Polymer: N1

320 atoms
326 bonds
604 angles
834 dihedrals
192 impropers

8 atom types
11 bond types
23 angle types
32 dihedral types
3 improper types

 -50.00000   50.00000 xlo xhi
 -50.00000   50.00000 ylo yhi
 -50.00000   50.00000 zlo zhi

Masses

1 1.008
2 14.007
3 12.011
4 1.008
5 12.011
6 15.999
7 15.999
8 14.007

Pair Coeffs

1    0.000 0.0000000
2    0.170 3.3000000
3    0.066 3.5000000
4    0.030 2.5000000
5    0.070 3.5500000
6    0.140 2.9000000
7    0.210 2.9600000
8    0.170 3.2500000

Bond Coeffs

1 434.0000   1.0100
2 382.0000   1.4480
3 268.0000   1.5290
4 340.0000   1.0900
5 317.0000   1.5220
6 214.0000   1.3270
7 570.0000   1.2290
8 320.0000   1.4100
9 337.0000   1.4490
10 490.0000   1.3350
11 457.0000   1.3580

Angle Coeffs

1   35.000  109.500
2   56.200  109.470
3   37.500  110.700
4   58.350  112.700
5   63.000  111.100
6   81.000  111.400
7   80.000  120.400
8   83.000  116.900
9   50.000  109.500
10   80.000  109.700
11   50.000  121.900
12   38.000  118.400
13   80.000  122.900
14   60.000  109.500
15   83.000  123.400
16   35.000  119.800
17   65.000  109.000
18   70.000  120.500
19   69.900  118.180
20   35.000  122.000
21   35.000  115.000
22   51.800  107.200
23   33.000  107.800

Dihedral Coeffs

1   -0.190   -0.417    0.418    0.000
2   -1.013   -0.709    0.473    0.000
3    2.392   -0.674    0.550    0.000
4   -2.060   -0.313    0.315    0.000
5    0.000    0.000   -0.553    0.000
6    4.669    5.124    0.000    0.000
7   -1.220   -0.126    0.422    0.000
8    6.280   -1.467    2.030    0.000
9    0.000    0.462    0.000    0.000
10    2.300    6.089    0.000    0.000
11   -2.000    5.000    0.000    0.000
12    0.000    0.000    0.198    0.000
13    0.000    0.000    0.468    0.000
14    0.650   -0.250    0.670    0.000
15    0.000   14.000    0.000    0.000
16    1.173    0.189   -1.200    0.000
17    1.300   -0.200    0.200    0.000
18    0.416   -0.128    0.695    0.000
19    1.711   -0.500    0.663    0.000
20    0.000    0.000    0.300    0.000
21    0.000    0.000    0.132    0.000
22    0.000    0.000    0.464    0.000
23    0.000    0.000    0.000    0.000
24    0.000    4.900    0.000    0.000
25    0.000    0.000    0.760    0.000
26    0.000    0.000   -0.100    0.000
27    0.000    0.000    0.560    0.000
28    0.000    0.000    0.400    0.000
29   -0.550    0.000    0.000    0.000
30    0.000    6.089    0.000    0.000
31    0.000    5.124    0.000    0.000
32    0.000    0.000    0.360    0.000

Improper Coeffs

1    0.000  -1   2
2   10.500  -1   2
3    2.500  -1   2

Atoms

1 1 1  0.3992   -3.33128  -12.71930   23.29416
2 1 2 -0.8508   -2.34909  -12.98409   23.24475
3 1 3  0.0548   -2.16634  -14.36957   23.65053
4 1 3  0.0561   -1.73994  -12.60000   21.97061
5 1 3 -0.2393   -2.34627  -14.49225   25.16210
6 1 4  0.0784   -2.90503  -15.00029   23.14436
7 1 4  0.0784   -1.16804  -14.73951   23.39399
8 1 4  0.0877   -3.29487  -14.06055   25.49997
9 1 4  0.0877   -1.53436  -13.98544   25.69668
10 1 4  0.0877   -2.33388  -15.54559   25.46324
11 1 3 -0.1991   -2.71005  -11.80846   21.06801
12 1 4  0.0920   -1.37406  -13.47455   21.42102
13 1 4  0.0920   -0.86876  -11.97607   22.20192
14 1 3 -0.1743   -2.00121  -11.10886   19.88347
15 1 4  0.1091   -3.24516  -11.05309   21.65659
16 1 4  0.1091   -3.47568  -12.50029   20.69469
17 1 5  0.4401   -2.97312  -10.49192   18.87935
18 1 4  0.1323   -1.38344  -11.83810   19.34928
19 1 4  0.1323   -1.35505  -10.31564   20.27252
20 1 6 -0.3811   -2.32776   -9.72589   17.92652
21 1 7 -0.4437   -4.18168  -10.69051   18.88435
22 1 3 -0.0050   -3.20196   -9.24149   16.86345
23 1 3  0.1697   -2.44095   -8.61636   15.65343
24 1 4  0.1219   -3.75740  -10.10834   16.48478
25 1 4  0.1219   -3.90670   -8.52168   17.29459
26 1 8 -1.0950   -2.42723   -7.14753   15.63076
27 1 4  0.1144   -1.39548   -8.94285   15.65603
28 1 4  0.1144   -2.90606   -8.94719   14.72042
29 1 5  0.7568   -2.21541   -6.29258   14.56052
30 1 1  0.5206   -2.18309   -6.69320   16.50206
31 1 6 -0.3494   -2.40627   -6.80903   13.31705
32 1 7 -0.4689   -1.84469   -5.14975   14.79806
33 1 3  0.0827   -1.98715   -6.14747   12.07469
34 1 4  0.1318   -1.65387   -7.00873   11.47863
35 1 3 -0.0332   -0.82102   -5.17450   12.03617
36 1 3  0.0069   -2.99511   -5.41369   11.17214
37 1 4  0.1386    0.14375   -5.67320   12.17103
38 1 4  0.1386   -0.89224   -4.41892   12.80561
39 1 6 -0.3601   -0.84808   -4.51378   10.73230
40 1 4  0.1423   -3.78126   -6.07732   10.80095
41 1 6 -0.3498   -3.64152   -4.25606   11.74354
42 1 3  0.0213   -2.08952   -4.84331   10.05964
43 1 3 -0.0282   -3.43355   -3.11858   10.84610
44 1 4  0.1340   -1.84794   -5.57528    9.28406
45 1 3  0.0689   -2.91234   -3.64916    9.51269
46 1 4  0.1313   -4.37326   -2.56839   10.74607
47 1 4  0.1313   -2.70886   -2.45967   11.31598
48 1 4  0.1391   -3.75178   -4.09377    8.96148
49 1 6 -0.3459   -2.25349   -2.67734    8.60766
50 1 5  0.7478   -3.07424   -1.92836    7.75955
51 1 8 -1.0934   -2.39505   -1.11634    6.81935
52 1 7 -0.4675   -4.29699   -2.00678    7.79854
53 1 3  0.1627   -3.11840   -0.42326    5.68497
54 1 1  0.5123   -1.39685   -1.26946    6.77267
55 1 3  0.1120   -2.38501    0.64416    4.71759
56 1 4  0.1243   -3.99742    0.06413    6.12405
57 1 4  0.1243   -3.51581   -1.22531    5.05055
58 1 6 -0.4999   -3.38433    1.27791    3.77009
59 1 4  0.0991   -1.61612    0.15154    4.11709
60 1 4  0.0991   -1.95080    1.45052    5.31486
61 1 5  0.5037   -3.43005    2.22382    2.77146
62 1 3 -0.2114   -2.18887    2.68305    1.98048
63 1 7 -0.4014   -4.53419    2.65992    2.43796
64 1 3 -0.1467   -2.24664    4.11767    1.21660
65 1 4  0.1153   -1.38054    2.75957    2.71775
66 1 4  0.1153   -1.92981    1.90350    1.25770
67 1 3 -0.0122   -2.74381    4.27412   -0.29795
68 1 4  0.1070   -1.21553    4.49452    1.23399
69 1 4  0.1070   -2.83576    4.80853    1.83250
70 1 8 -0.4892   -2.11020    5.46943   -1.03350
71 1 4  0.0996   -2.45786    3.37120   -0.84814
72 1 4  0.0996   -3.83513    4.36943   -0.31281
73 1 5  0.0830   -2.63132    5.89631   -2.16099
74 1 3 -0.1330   -1.91000    6.95514   -3.14328
75 1 4  0.1142   -3.54955    5.43330   -2.56463
76 1 3 -0.1611   -2.72839    7.92039   -4.13699
77 1 4  0.1061   -1.23980    7.56726   -2.52954
78 1 4  0.1061   -1.27941    6.32763   -3.78625
79 1 3 -0.1675   -1.89277    8.64725   -5.33003
80 1 4  0.0912   -3.20403    8.70077   -3.53110
81 1 4  0.0912   -3.53553    7.33836   -4.59695
82 1 3 -0.1293   -2.64352    9.70564   -6.27953
83 1 4  0.0875   -1.03608    9.15970   -4.87689
84 1 4  0.0875   -1.48501    7.85727   -5.97177
85 1 5  0.0556   -1.92961   10.23366   -7.61990
86 1 4  0.1115   -2.92475   10.58451   -5.68835
87 1 4  0.1115   -3.57077    9.22916   -6.62077
88 1 8 -0.4368   -2.25854   11.33268   -8.26467
89 1 4  0.1095   -1.17959    9.54604   -8.04953
90 1 3 -0.0275   -1.55312   11.61320   -9.60060
91 1 3 -0.1591   -2.00308   12.95702  -10.35226
92 1 4  0.0902   -0.47550   11.67337   -9.41264
93 1 4  0.0902   -1.75074   10.76922  -10.27097
94 1 3 -0.1559   -1.36610   13.24407  -11.80532
95 1 4  0.1144   -3.09473   12.94574  -10.46144
96 1 4  0.1144   -1.77028   13.80913   -9.70203
97 1 5  0.4374   -1.67660   14.63259  -12.49894
98 1 4  0.1222   -0.27659   13.17980  -11.71484
99 1 4  0.1222   -1.71582   12.46076  -12.48650
100 1 6 -0.3909   -1.16621   14.76862  -13.80428
101 1 7 -0.4344   -2.28989   15.53571  -11.93967
102 1 3  0.0091   -1.36040   16.09622  -14.46043
103 1 3  0.1875   -0.78858   16.32353  -15.95434
104 1 4  0.1114   -2.43624   16.30798  -14.48021
105 1 4  0.1114   -0.87865   16.83275  -13.80562
106 1 8 -1.1057   -0.56795   17.77727  -16.27996
107 1 4  0.1119    0.17845   15.82306  -16.06036
108 1 4  0.1119   -1.46902   15.90605  -16.70240
109 1 5  0.7668   -0.12306   18.54751  -17.34945
110 1 1  0.5115   -0.34692   18.31350  -15.45073
111 1 6 -0.3246   -0.22842   18.13527  -18.66261
112 1 7 -0.5021    0.37339   19.63063  -17.03370
113 1 3  0.0727    0.52735   18.89496  -19.70167
114 1 4  0.1187    1.50154   18.38918  -19.75243
115 1 3 -0.0212    0.77388   20.39637  -19.54763
116 1 3  0.0264   -0.01190   18.94664  -21.16030
117 1 4  0.1408   -0.16737   20.90334  -19.33444
118 1 4  0.1408    1.51607   20.64353  -18.78742
119 1 6 -0.3594    1.27481   20.90500  -20.81241
120 1 4  0.1406   -0.03841   17.97038  -21.65154
121 1 6 -0.3560   -1.32729   19.54882  -21.30293
122 1 3  0.0198    0.93642   19.95366  -21.84262
123 1 3 -0.0324   -1.24448   20.66441  -22.24281
124 1 4  0.1366    1.87192   19.51597  -22.20322
125 1 3  0.0641    0.08998   20.55979  -22.96817
126 1 4  0.1315   -2.09108   20.61011  -22.93402
127 1 4  0.1315   -1.33304   21.60299  -21.68349
128 1 4  0.1369    0.02362   19.80392  -23.76217
129 1 6 -0.3376    0.58854   21.79953  -23.54873
130 1 5  0.7441    0.03125   22.16658  -24.75145
131 1 8 -1.0771    0.61707   23.29870  -25.29312
132 1 7 -0.4809   -0.86353   21.53952  -25.30315
133 1 3  0.1579    0.28596   23.76279  -26.65169
134 1 1  0.5188    1.44051   23.64209  -24.81628
135 1 3  0.0013    0.84250   25.14477  -27.07406
136 1 4  0.1165   -0.80555   23.76285  -26.75601
137 1 4  0.1165    0.65427   23.00672  -27.35603
138 1 6 -0.3716    0.22554   25.57810  -28.32338
139 1 4  0.1173    0.59508   25.89567  -26.31587
140 1 4  0.1173    1.93242   25.09281  -27.17124
141 1 5  0.4471    0.96375   26.37681  -29.16011
142 1 3 -0.1784    0.14752   26.77826  -30.38545
143 1 7 -0.4466    2.13153   26.68556  -28.97046
144 1 3 -0.1791    0.63835   28.05150  -31.10927
145 1 4  0.1326    0.14796   25.92240  -31.06904
146 1 4  0.1326   -0.88654   26.95749  -30.06546
147 1 3  0.0448    0.39365   27.98273  -32.63024
148 1 4  0.1157    1.70395   28.23690  -30.93043
149 1 4  0.1157    0.10245   28.91208  -30.68670
150 1 2 -0.8253    0.35565   29.31900  -33.23478
151 1 4  0.0820   -0.55819   27.47592  -32.82437
152 1 4  0.0820    1.19178   27.38805  -33.09249
153 1 3  0.0427    0.06182   29.25233  -34.66963
154 1 1  0.3887    1.24232   29.80166  -33.08815
155 1 3 -0.2418   -0.17483   30.64634  -35.23682
156 1 4  0.0801   -0.84025   28.65552  -34.84803
157 1 4  0.0801    0.89090   28.77938  -35.20864
158 1 4  0.0887   -1.00541   31.14641  -34.72675
159 1 4  0.0887   -0.43095   30.58185  -36.30051
160 1 4  0.0887    0.71616   31.27562  -35.14426
161 1 1  0.3992   -0.84002   -9.01093   22.69619
162 1 2 -0.8508   -1.84646   -8.90026   22.81197
163 1 3  0.0548   -2.16866   -8.85648   24.24078
164 1 3  0.0561   -2.36825   -7.75687   22.05446
165 1 3 -0.2393   -2.04945  -10.23522   24.87577
166 1 4  0.0784   -1.48651   -8.16706   24.74867
167 1 4  0.0784   -3.19400   -8.50784   24.40670
168 1 4  0.0877   -1.10269  -10.72728   24.62884
169 1 4  0.0877   -2.87897  -10.86723   24.54812
170 1 4  0.0877   -2.11675  -10.16999   25.96683
171 1 3 -0.1991   -1.28940   -7.03134   21.22576
172 1 4  0.0920   -2.85830   -7.02905   22.71212
173 1 4  0.0920   -3.14041   -8.14613   21.38105
174 1 3 -0.1743   -1.89163   -6.04579   20.19249
175 1 4  0.1091   -0.66667   -7.76271   20.69534
176 1 4  0.1091   -0.62427   -6.49741   21.91666
177 1 5  0.4401   -0.84563   -5.15787   19.51703
178 1 4  0.1323   -2.61462   -5.39266   20.69268
179 1 4  0.1323   -2.40777   -6.62513   19.41914
180 1 6 -0.3811   -1.37467   -4.42578   18.47175
181 1 7 -0.4437    0.32009   -5.08408   19.88489
182 1 3 -0.0050   -0.43877   -3.48207   17.85906
183 1 3  0.1697   -1.10067   -2.44603   16.88924
184 1 4  0.1219    0.01529   -2.91093   18.67835
185 1 4  0.1219    0.34178   -4.05646   17.34780
186 1 8 -1.0950   -0.87435   -2.70352   15.46111
187 1 4  0.1144   -2.18502   -2.43177   17.04040
188 1 4  0.1144   -0.70573   -1.44808   17.09870
189 1 5  0.7568   -0.95669   -1.85025   14.37493
190 1 1  0.5206   -1.11580   -3.65131   15.15960
191 1 6 -0.3494   -0.85966   -0.51565   14.60908
192 1 7 -0.4689   -1.13143   -2.30420   13.25543
193 1 3  0.0827   -1.18187    0.45123   13.55814
194 1 4  0.1318   -1.69088    1.23609   14.13433
195 1 3 -0.0332   -2.10713    0.13410   12.38603
196 1 3  0.0069   -0.06461    1.16410   12.77970
197 1 4  0.1386   -3.13833   -0.06539   12.69282
198 1 4  0.1386   -1.75478   -0.70146   11.78239
199 1 6 -0.3601   -2.06108    1.29996   11.50041
200 1 4  0.1423    0.63466    1.69696   13.42900
201 1 6 -0.3498    0.71248    0.32431   11.88816
202 1 3  0.0213   -0.87306    2.07128   11.82874
203 1 3 -0.0282    0.65951    0.89004   10.53932
204 1 4  0.1340   -1.21179    2.99765   12.30009
205 1 3  0.0689    0.10763    2.30967   10.66029
206 1 4  0.1313    1.66673    0.86916   10.11386
207 1 4  0.1313    0.02089    0.24772    9.92213
208 1 4  0.1391    0.89525    2.95976   11.06448
209 1 6 -0.3459   -0.41027    2.93904    9.42908
210 1 5  0.7478    0.51174    3.60969    8.62624
211 1 8 -1.0934   -0.04612    4.31325    7.53510
212 1 7 -0.4675    1.71212    3.61316    8.87099
213 1 3  0.1627    0.77402    5.28293    6.71615
214 1 1  0.5123   -1.05239    4.40630    7.57332
215 1 3  0.1120    0.20835    5.94552    5.35820
216 1 4  0.1243    1.71743    4.77524    6.48068
217 1 4  0.1243    1.04379    6.09825    7.39903
218 1 6 -0.4999    1.29063    6.74950    4.67537
219 1 4  0.0991   -0.62549    6.61619    5.58046
220 1 4  0.0991   -0.10251    5.16030    4.66371
221 1 5  0.5037    1.47556    7.49282    3.53143
222 1 3 -0.2114    0.31387    8.10406    2.72322
223 1 7 -0.4014    2.63276    7.76067    3.20039
224 1 3 -0.1467    0.57913    8.51056    1.17186
225 1 4  0.1153   -0.47288    7.33995    2.71218
226 1 4  0.1153   -0.05857    8.97985    3.26345
227 1 3 -0.0122    1.09388    9.96212    0.73292
228 1 4  0.1070   -0.38634    8.36953    0.66864
229 1 4  0.1070    1.26285    7.77016    0.73843
230 1 8 -0.4892    0.64295   10.38045   -0.68113
231 1 4  0.0996    0.68002   10.69811    1.43074
232 1 4  0.0996    2.18745    9.99134    0.79303
233 1 5  0.0830    1.22514   11.39250   -1.28057
234 1 3 -0.1330    0.66702   12.07300   -2.63229
235 1 4  0.1142    2.06704   11.92206   -0.79979
236 1 3 -0.1611    1.61773   12.83376   -3.68198
237 1 4  0.1061    0.09072   11.31024   -3.16789
238 1 4  0.1061   -0.04649   12.82499   -2.27169
239 1 3 -0.1675    0.89676   13.79036   -4.78324
240 1 4  0.0912    2.19982   12.07546   -4.21914
241 1 4  0.0912    2.33326   13.44524   -3.12005
242 1 3 -0.1293    1.79371   14.48676   -5.92084
243 1 4  0.0875    0.12334   13.19925   -5.28763
244 1 4  0.0875    0.37866   14.58646   -4.23557
245 1 5  0.0556    1.16425   15.63627   -6.85145
246 1 4  0.1115    2.20023   13.71376   -6.58284
247 1 4  0.1115    2.64164   14.96359   -5.41399
248 1 8 -0.4368    1.66008   16.02238   -8.00784
249 1 4  0.1095    0.31236   16.18102   -6.40697
250 1 3 -0.0275    0.99685   17.22442   -8.69607
251 1 3 -0.1591    1.63835   17.65581  -10.10044
252 1 4  0.0902   -0.05929   16.98557   -8.86307
253 1 4  0.0902    1.06498   18.08163   -8.01696
254 1 3 -0.1559    1.05285   18.98144  -10.80542
255 1 4  0.1144    2.71735   17.79820   -9.96208
256 1 4  0.1144    1.52878   16.81783  -10.79988
257 1 5  0.4374    1.55851   19.33921  -12.26089
258 1 4  0.1222   -0.03481   18.87302  -10.87580
259 1 4  0.1222    1.28727   19.83691  -10.16313
260 1 6 -0.3909    1.10884   20.57701  -12.75848
261 1 7 -0.4344    2.24877   18.57735  -12.92966
262 1 3  0.0091    1.50117   20.91148  -14.16321
263 1 3  0.1875    0.96083   22.27945  -14.82392
264 1 4  0.1114    2.59622   20.92069  -14.21250
265 1 4  0.1114    1.13896   20.08219  -14.77439
266 1 8 -1.1057    1.07700   22.31754  -16.33291
267 1 4  0.1119   -0.09005   22.43670  -14.56245
268 1 4  0.1119    1.52996   23.13210  -14.43808
269 1 5  0.7668    0.40153   23.15917  -17.22174
270 1 1  0.5115    0.81133   21.38615  -16.66169
271 1 6 -0.3246    0.83752   24.45655  -17.41668
272 1 7 -0.5021   -0.49046   22.67278  -17.92093
273 1 3  0.0727    0.10434   25.21484  -18.45367
274 1 4  0.1187   -0.92797   25.32222  -18.08852
275 1 3 -0.0212    0.06255   24.65252  -19.88343
276 1 3  0.0264    0.59694   26.63947  -18.79039
277 1 4  0.1408    1.03395   24.26064  -20.20086
278 1 4  0.1408   -0.68350   23.86541  -20.01585
279 1 6 -0.3594   -0.30763   25.74177  -20.78084
280 1 4  0.1406    0.45368   27.35356  -17.97389
281 1 6 -0.3560    1.98523   26.71510  -19.20664
282 1 3  0.0198   -0.19719   26.98887  -20.05720
283 1 3 -0.0324    2.05183   27.37847  -20.50200
284 1 4  0.1366   -1.21038   27.35826  -19.86956
285 1 3  0.0641    0.69456   28.01906  -20.75901
286 1 4  0.1315    2.86105   28.11409  -20.48398
287 1 4  0.1315    2.29761   26.63034  -21.26421
288 1 4  0.1369    0.61179   28.95912  -20.19556
289 1 6 -0.3376    0.38123   28.28450  -22.15328
290 1 5  0.7441    0.98465   29.39174  -22.69785
291 1 8 -1.0771    0.56992   29.63491  -23.99437
292 1 7 -0.4809    1.77838   30.10032  -22.09407
293 1 3  0.1579    0.96515   30.85938  -24.70840
294 1 1  0.5188   -0.21996   29.08866  -24.31090
295 1 3  0.0013    0.61753   30.92160  -26.21393
296 1 4  0.1165    2.04457   30.99929  -24.57596
297 1 4  0.1165    0.48758   31.70606  -24.20011
298 1 6 -0.3716    1.29182   32.05125  -26.83889
299 1 4  0.1173    0.97129   30.01540  -26.71755
300 1 4  0.1173   -0.46862   30.98849  -26.34051
301 1 5  0.4471    0.67096   32.65659  -27.90153
302 1 3 -0.1784    1.54183   33.77296  -28.46810
303 1 7 -0.4466   -0.44971   32.37552  -28.30124
304 1 3 -0.1791    1.24146   34.15675  -29.93281
305 1 4  0.1326    1.42220   34.64003  -27.80953
306 1 4  0.1326    2.58952   33.45086  -28.41815
307 1 3  0.0448    1.47665   35.65770  -30.19476
308 1 4  0.1157    0.21371   33.90362  -30.21829
309 1 4  0.1157    1.89592   33.56042  -30.58265
310 1 2 -0.8253    1.71035   35.92985  -31.61777
311 1 4  0.0820    2.34491   35.99739  -29.61913
312 1 4  0.0820    0.60127   36.22084  -29.84696
313 1 3  0.0427    1.99147   37.34955  -31.85298
314 1 1  0.3887    0.90082   35.64436  -32.16926
315 1 3 -0.2418    2.42900   37.58024  -33.29377
316 1 4  0.0801    2.79697   37.69422  -31.19406
317 1 4  0.0801    1.10242   37.95580  -31.64404
318 1 4  0.0887    3.32313   36.99515  -33.53525
319 1 4  0.0887    2.67382   38.63723  -33.44859
320 1 4  0.0887    1.63901   37.31184  -34.00249

Bonds

1 1 2 1
2 2 3 2
3 2 4 2
4 3 5 3
5 4 6 3
6 4 7 3
7 4 8 5
8 4 9 5
9 4 10 5
10 3 11 4
11 4 12 4
12 4 13 4
13 3 14 11
14 4 15 11
15 4 16 11
16 5 17 14
17 4 18 14
18 4 19 14
19 6 20 17
20 7 21 17
21 8 22 20
22 3 23 22
23 4 24 22
24 4 25 22
25 9 26 23
26 4 27 23
27 4 28 23
28 10 29 26
29 1 30 26
30 6 31 29
31 7 32 29
32 8 33 31
33 4 34 33
34 3 35 33
35 3 36 33
36 4 37 35
37 4 38 35
38 8 39 35
39 4 40 36
40 8 41 36
41 3 42 36
42 8 43 41
43 4 44 42
44 3 45 42
45 4 46 43
46 4 47 43
47 4 48 45
48 8 49 45
49 6 50 49
50 10 51 50
51 7 52 50
52 9 53 51
53 1 54 51
54 3 55 53
55 4 56 53
56 4 57 53
57 8 58 55
58 4 59 55
59 4 60 55
60 6 61 58
61 5 62 61
62 7 63 61
63 3 64 62
64 4 65 62
65 4 66 62
66 3 67 64
67 4 68 64
68 4 69 64
69 9 70 67
70 4 71 67
71 4 72 67
72 11 73 70
73 5 74 73
74 4 75 73
75 3 76 74
76 4 77 74
77 4 78 74
78 3 79 76
79 4 80 76
80 4 81 76
81 3 82 79
82 4 83 79
83 4 84 79
84 5 85 82
85 4 86 82
86 4 87 82
87 11 88 85
88 4 89 85
89 9 90 88
90 3 91 90
91 4 92 90
92 4 93 90
93 3 94 91
94 4 95 91
95 4 96 91
96 5 97 94
97 4 98 94
98 4 99 94
99 6 100 97
100 7 101 97
101 8 102 100
102 3 103 102
103 4 104 102
104 4 105 102
105 9 106 103
106 4 107 103
107 4 108 103
108 10 109 106
109 1 110 106
110 6 111 109
111 7 112 109
112 8 113 111
113 4 114 113
114 3 115 113
115 3 116 113
116 4 117 115
117 4 118 115
118 8 119 115
119 4 120 116
120 8 121 116
121 3 122 116
122 8 123 121
123 4 124 122
124 3 125 122
125 4 126 123
126 4 127 123
127 4 128 125
128 8 129 125
129 6 130 129
130 10 131 130
131 7 132 130
132 9 133 131
133 1 134 131
134 3 135 133
135 4 136 133
136 4 137 133
137 8 138 135
138 4 139 135
139 4 140 135
140 6 141 138
141 5 142 141
142 7 143 141
143 3 144 142
144 4 145 142
145 4 146 142
146 3 147 144
147 4 148 144
148 4 149 144
149 2 150 147
150 4 151 147
151 4 152 147
152 2 153 150
153 1 154 150
154 3 155 153
155 4 156 153
156 4 157 153
157 4 158 155
158 4 159 155
159 4 160 155
160 8 42 39
161 3 45 43
162 8 122 119
163 3 125 123
164 1 162 161
165 2 163 162
166 2 164 162
167 3 165 163
168 4 166 163
169 4 167 163
170 4 168 165
171 4 169 165
172 4 170 165
173 3 171 164
174 4 172 164
175 4 173 164
176 3 174 171
177 4 175 171
178 4 176 171
179 5 177 174
180 4 178 174
181 4 179 174
182 6 180 177
183 7 181 177
184 8 182 180
185 3 183 182
186 4 184 182
187 4 185 182
188 9 186 183
189 4 187 183
190 4 188 183
191 10 189 186
192 1 190 186
193 6 191 189
194 7 192 189
195 8 193 191
196 4 194 193
197 3 195 193
198 3 196 193
199 4 197 195
200 4 198 195
201 8 199 195
202 4 200 196
203 8 201 196
204 3 202 196
205 8 203 201
206 4 204 202
207 3 205 202
208 4 206 203
209 4 207 203
210 4 208 205
211 8 209 205
212 6 210 209
213 10 211 210
214 7 212 210
215 9 213 211
216 1 214 211
217 3 215 213
218 4 216 213
219 4 217 213
220 8 218 215
221 4 219 215
222 4 220 215
223 6 221 218
224 5 222 221
225 7 223 221
226 3 224 222
227 4 225 222
228 4 226 222
229 3 227 224
230 4 228 224
231 4 229 224
232 9 230 227
233 4 231 227
234 4 232 227
235 11 233 230
236 5 234 233
237 4 235 233
238 3 236 234
239 4 237 234
240 4 238 234
241 3 239 236
242 4 240 236
243 4 241 236
244 3 242 239
245 4 243 239
246 4 244 239
247 5 245 242
248 4 246 242
249 4 247 242
250 11 248 245
251 4 249 245
252 9 250 248
253 3 251 250
254 4 252 250
255 4 253 250
256 3 254 251
257 4 255 251
258 4 256 251
259 5 257 254
260 4 258 254
261 4 259 254
262 6 260 257
263 7 261 257
264 8 262 260
265 3 263 262
266 4 264 262
267 4 265 262
268 9 266 263
269 4 267 263
270 4 268 263
271 10 269 266
272 1 270 266
273 6 271 269
274 7 272 269
275 8 273 271
276 4 274 273
277 3 275 273
278 3 276 273
279 4 277 275
280 4 278 275
281 8 279 275
282 4 280 276
283 8 281 276
284 3 282 276
285 8 283 281
286 4 284 282
287 3 285 282
288 4 286 283
289 4 287 283
290 4 288 285
291 8 289 285
292 6 290 289
293 10 291 290
294 7 292 290
295 9 293 291
296 1 294 291
297 3 295 293
298 4 296 293
299 4 297 293
300 8 298 295
301 4 299 295
302 4 300 295
303 6 301 298
304 5 302 301
305 7 303 301
306 3 304 302
307 4 305 302
308 4 306 302
309 3 307 304
310 4 308 304
311 4 309 304
312 2 310 307
313 4 311 307
314 4 312 307
315 2 313 310
316 1 314 310
317 3 315 313
318 4 316 313
319 4 317 313
320 4 318 315
321 4 319 315
322 4 320 315
323 8 202 199
324 3 205 203
325 8 282 279
326 3 285 283

Angles

1 1 1 2 3
2 1 1 2 4
3 2 2 3 5
4 1 2 3 6
5 1 2 3 7
6 3 3 5 8
7 3 3 5 9
8 3 3 5 10
9 2 2 4 11
10 1 2 4 12
11 1 2 4 13
12 4 4 11 14
13 3 4 11 15
14 3 4 11 16
15 5 11 14 17
16 3 11 14 18
17 3 11 14 19
18 6 14 17 20
19 7 14 17 21
20 8 17 20 22
21 9 20 22 23
22 1 20 22 24
23 1 20 22 25
24 10 22 23 26
25 3 22 23 27
26 3 22 23 28
27 11 23 26 29
28 12 23 26 30
29 6 26 29 31
30 13 26 29 32
31 8 29 31 33
32 1 31 33 34
33 9 31 33 35
34 9 31 33 36
35 3 33 35 37
36 3 33 35 38
37 9 33 35 39
38 3 33 36 40
39 9 33 36 41
40 4 33 36 42
41 14 36 41 43
42 3 36 42 44
43 4 36 42 45
44 1 41 43 46
45 1 41 43 47
46 3 42 45 48
47 9 42 45 49
48 8 45 49 50
49 6 49 50 51
50 15 49 50 52
51 11 50 51 53
52 16 50 51 54
53 10 51 53 55
54 1 51 53 56
55 1 51 53 57
56 9 53 55 58
57 3 53 55 59
58 3 53 55 60
59 8 55 58 61
60 6 58 61 62
61 15 58 61 63
62 5 61 62 64
63 1 61 62 65
64 1 61 62 66
65 4 62 64 67
66 3 62 64 68
67 3 62 64 69
68 17 64 67 70
69 3 64 67 71
70 3 64 67 72
71 18 67 70 73
72 19 70 73 74
73 20 70 73 75
74 5 73 74 76
75 1 73 74 77
76 1 73 74 78
77 4 74 76 79
78 3 74 76 80
79 3 74 76 81
80 4 76 79 82
81 3 76 79 83
82 3 76 79 84
83 5 79 82 85
84 3 79 82 86
85 3 79 82 87
86 19 82 85 88
87 21 82 85 89
88 18 85 88 90
89 17 88 90 91
90 1 88 90 92
91 1 88 90 93
92 4 90 91 94
93 3 90 91 95
94 3 90 91 96
95 5 91 94 97
96 3 91 94 98
97 3 91 94 99
98 6 94 97 100
99 7 94 97 101
100 8 97 100 102
101 9 100 102 103
102 1 100 102 104
103 1 100 102 105
104 10 102 103 106
105 3 102 103 107
106 3 102 103 108
107 11 103 106 109
108 12 103 106 110
109 6 106 109 111
110 13 106 109 112
111 8 109 111 113
112 1 111 113 114
113 9 111 113 115
114 9 111 113 116
115 3 113 115 117
116 3 113 115 118
117 9 113 115 119
118 3 113 116 120
119 9 113 116 121
120 4 113 116 122
121 14 116 121 123
122 3 116 122 124
123 4 116 122 125
124 1 121 123 126
125 1 121 123 127
126 3 122 125 128
127 9 122 125 129
128 8 125 129 130
129 6 129 130 131
130 15 129 130 132
131 11 130 131 133
132 16 130 131 134
133 10 131 133 135
134 1 131 133 136
135 1 131 133 137
136 9 133 135 138
137 3 133 135 139
138 3 133 135 140
139 8 135 138 141
140 6 138 141 142
141 15 138 141 143
142 5 141 142 144
143 1 141 142 145
144 1 141 142 146
145 4 142 144 147
146 3 142 144 148
147 3 142 144 149
148 2 144 147 150
149 3 144 147 151
150 3 144 147 152
151 22 147 150 153
152 1 147 150 154
153 2 150 153 155
154 1 150 153 156
155 1 150 153 157
156 3 153 155 158
157 3 153 155 159
158 3 153 155 160
159 3 40 36 42
160 15 100 97 101
161 1 38 35 39
162 1 117 115 119
163 1 150 147 152
164 3 125 123 126
165 23 86 82 87
166 23 148 144 149
167 3 125 123 127
168 3 120 116 122
169 3 94 91 95
170 7 142 141 143
171 16 29 26 30
172 1 26 23 27
173 23 46 43 47
174 1 40 36 41
175 9 41 43 45
176 1 119 122 124
177 23 98 94 99
178 23 117 115 118
179 9 36 42 39
180 1 150 147 151
181 3 67 64 69
182 9 39 42 45
183 1 26 23 28
184 3 155 153 157
185 3 103 102 105
186 23 59 55 60
187 1 138 135 139
188 3 14 11 16
189 3 23 22 24
190 1 106 103 107
191 3 147 144 149
192 3 76 74 77
193 23 158 155 160
194 23 71 67 72
195 12 133 131 134
196 3 124 122 125
197 23 27 23 28
198 13 51 50 52
199 9 123 125 129
200 3 79 76 81
201 3 64 62 66
202 20 88 85 89
203 3 55 53 57
204 23 92 90 93
205 3 34 33 35
206 23 159 155 160
207 1 118 115 119
208 1 17 14 18
209 1 85 82 87
210 9 43 45 49
211 3 114 113 115
212 1 70 67 71
213 3 43 45 48
214 23 151 147 152
215 23 107 103 108
216 3 147 144 148
217 1 138 135 140
218 9 121 123 125
219 3 23 22 25
220 3 155 153 156
221 23 126 123 127
222 3 45 43 46
223 3 64 62 65
224 23 37 35 38
225 1 58 55 59
226 16 109 106 110
227 3 79 76 80
228 13 131 130 132
229 23 77 74 78
230 23 95 91 96
231 23 145 142 146
232 3 135 133 137
233 3 5 3 6
234 1 128 125 129
235 15 20 17 21
236 3 91 90 93
237 4 35 33 36
238 15 31 29 32
239 3 44 42 45
240 23 139 135 140
241 23 24 22 25
242 4 42 45 43
243 3 123 125 128
244 23 18 14 19
245 3 55 53 56
246 21 74 73 75
247 23 15 11 16
248 23 68 64 69
249 3 11 4 12
250 3 5 3 7
251 4 122 125 123
252 3 103 102 104
253 4 115 113 116
254 15 111 109 112
255 3 144 142 145
256 3 144 142 146
257 23 83 79 84
258 23 9 5 10
259 9 41 36 42
260 14 35 39 42
261 23 80 76 81
262 3 135 133 136
263 23 156 153 157
264 23 8 5 10
265 3 67 64 68
266 23 6 3 7
267 1 97 94 98
268 1 37 35 39
269 9 119 122 125
270 3 114 113 116
271 1 106 103 108
272 23 56 53 57
273 23 8 5 9
274 3 45 43 47
275 23 104 102 105
276 3 94 91 96
277 1 48 45 49
278 3 11 4 13
279 3 82 79 84
280 1 39 42 44
281 9 121 116 122
282 1 70 67 72
283 3 14 11 15
284 9 116 122 119
285 1 58 55 60
286 7 62 61 63
287 23 65 62 66
288 1 17 14 19
289 12 53 51 54
290 3 76 74 78
291 3 82 79 83
292 14 115 119 122
293 22 3 2 4
294 3 34 33 36
295 1 97 94 99
296 23 12 4 13
297 1 153 150 154
298 23 158 155 159
299 3 91 90 92
300 1 120 116 121
301 1 85 82 86
302 23 136 133 137
303 1 161 162 163
304 1 161 162 164
305 2 162 163 165
306 1 162 163 166
307 1 162 163 167
308 3 163 165 168
309 3 163 165 169
310 3 163 165 170
311 2 162 164 171
312 1 162 164 172
313 1 162 164 173
314 4 164 171 174
315 3 164 171 175
316 3 164 171 176
317 5 171 174 177
318 3 171 174 178
319 3 171 174 179
320 6 174 177 180
321 7 174 177 181
322 8 177 180 182
323 9 180 182 183
324 1 180 182 184
325 1 180 182 185
326 10 182 183 186
327 3 182 183 187
328 3 182 183 188
329 11 183 186 189
330 12 183 186 190
331 6 186 189 191
332 13 186 189 192
333 8 189 191 193
334 1 191 193 194
335 9 191 193 195
336 9 191 193 196
337 3 193 195 197
338 3 193 195 198
339 9 193 195 199
340 3 193 196 200
341 9 193 196 201
342 4 193 196 202
343 14 196 201 203
344 3 196 202 204
345 4 196 202 205
346 1 201 203 206
347 1 201 203 207
348 3 202 205 208
349 9 202 205 209
350 8 205 209 210
351 6 209 210 211
352 15 209 210 212
353 11 210 211 213
354 16 210 211 214
355 10 211 213 215
356 1 211 213 216
357 1 211 213 217
358 9 213 215 218
359 3 213 215 219
360 3 213 215 220
361 8 215 218 221
362 6 218 221 222
363 15 218 221 223
364 5 221 222 224
365 1 221 222 225
366 1 221 222 226
367 4 222 224 227
368 3 222 224 228
369 3 222 224 229
370 17 224 227 230
371 3 224 227 231
372 3 224 227 232
373 18 227 230 233
374 19 230 233 234
375 20 230 233 235
376 5 233 234 236
377 1 233 234 237
378 1 233 234 238
379 4 234 236 239
380 3 234 236 240
381 3 234 236 241
382 4 236 239 242
383 3 236 239 243
384 3 236 239 244
385 5 239 242 245
386 3 239 242 246
387 3 239 242 247
388 19 242 245 248
389 21 242 245 249
390 18 245 248 250
391 17 248 250 251
392 1 248 250 252
393 1 248 250 253
394 4 250 251 254
395 3 250 251 255
396 3 250 251 256
397 5 251 254 257
398 3 251 254 258
399 3 251 254 259
400 6 254 257 260
401 7 254 257 261
402 8 257 260 262
403 9 260 262 263
404 1 260 262 264
405 1 260 262 265
406 10 262 263 266
407 3 262 263 267
408 3 262 263 268
409 11 263 266 269
410 12 263 266 270
411 6 266 269 271
412 13 266 269 272
413 8 269 271 273
414 1 271 273 274
415 9 271 273 275
416 9 271 273 276
417 3 273 275 277
418 3 273 275 278
419 9 273 275 279
420 3 273 276 280
421 9 273 276 281
422 4 273 276 282
423 14 276 281 283
424 3 276 282 284
425 4 276 282 285
426 1 281 283 286
427 1 281 283 287
428 3 282 285 288
429 9 282 285 289
430 8 285 289 290
431 6 289 290 291
432 15 289 290 292
433 11 290 291 293
434 16 290 291 294
435 10 291 293 295
436 1 291 293 296
437 1 291 293 297
438 9 293 295 298
439 3 293 295 299
440 3 293 295 300
441 8 295 298 301
442 6 298 301 302
443 15 298 301 303
444 5 301 302 304
445 1 301 302 305
446 1 301 302 306
447 4 302 304 307
448 3 302 304 308
449 3 302 304 309
450 2 304 307 310
451 3 304 307 311
452 3 304 307 312
453 22 307 310 313
454 1 307 310 314
455 2 310 313 315
456 1 310 313 316