#Polymer: N2

312 atoms
318 bonds
584 angles
794 dihedrals
184 impropers

7 atom types
10 bond types
21 angle types
29 dihedral types
3 improper types

 -50.00000   50.00000 xlo xhi
 -50.00000   50.00000 ylo yhi
 -50.00000   50.00000 zlo zhi

Masses

1 1.008
2 12.011
3 12.011
4 14.007
5 15.999
6 15.999
7 1.008

Pair Coeffs

1    0.030 2.5000000
2    0.070 3.5500000
3    0.066 3.5000000
4    0.170 3.2500000
5    0.140 2.9000000
6    0.210 2.9600000
7    0.000 0.0000000

Bond Coeffs

1 340.0000   1.0900
2 317.0000   1.5220
3 457.0000   1.3580
4 337.0000   1.4490
5 268.0000   1.5290
6 214.0000   1.3270
7 570.0000   1.2290
8 320.0000   1.4100
9 490.0000   1.3350
10 434.0000   1.0100

Angle Coeffs

1   35.000  115.000
2   35.000  122.000
3   35.000  109.500
4   70.000  120.500
5   65.000  109.000
6   58.350  112.700
7   37.500  110.700
8   63.000  111.100
9   81.000  111.400
10   80.000  120.400
11   83.000  116.900
12   50.000  109.500
13   83.000  123.400
14   50.000  121.900
15   35.000  119.800
16   80.000  109.700
17   60.000  109.500
18   38.000  118.400
19   80.000  122.900
20   69.900  118.180
21   33.000  107.800

Dihedral Coeffs

1    0.000    0.000    0.360    0.000
2    2.300    6.089    0.000    0.000
3    0.000    0.462    0.000    0.000
4    2.392   -0.674    0.550    0.000
5   -2.060   -0.313    0.315    0.000
6    0.000    0.000   -0.553    0.000
7    4.669    5.124    0.000    0.000
8   -1.220   -0.126    0.422    0.000
9   -0.550    0.000    0.000    0.000
10   -2.000    5.000    0.000    0.000
11    0.000    0.000    0.000    0.000
12    0.000    0.000    0.464    0.000
13    0.650   -0.250    0.670    0.000
14    0.000   14.000    0.000    0.000
15    1.173    0.189   -1.200    0.000
16    1.300   -0.200    0.200    0.000
17    0.000    0.000    0.300    0.000
18   -1.013   -0.709    0.473    0.000
19    0.000    4.900    0.000    0.000
20    0.000    0.000    0.198    0.000
21    0.000    0.000    0.468    0.000
22    0.000    0.000   -0.100    0.000
23    0.000    5.124    0.000    0.000
24    6.280   -1.467    2.030    0.000
25    0.000    6.089    0.000    0.000
26    0.000    0.000    0.760    0.000
27    0.845   -0.962    0.713    0.000
28    1.711   -0.500    0.663    0.000
29    0.000    0.000    0.132    0.000

Improper Coeffs

1   10.500  -1   2
2    0.000  -1   2
3    2.500  -1   2

Atoms

1 1 1  0.1350   14.68824    9.57533   28.70201
2 1 2  0.0216   15.64415    9.61489   28.18022
3 1 3 -0.2213   16.84106    9.28856   29.00906
4 1 4 -0.3859   15.79476    9.74990   26.84648
5 1 1  0.1069   17.49191    8.55815   28.51807
6 1 1  0.1069   16.51884    8.84819   29.96030
7 1 1  0.1069   17.41547   10.19044   29.23812
8 1 3 -0.0651   14.48282    9.75789   26.18808
9 1 3 -0.1706   14.62724    9.68131   24.65813
10 1 1  0.0941   13.85529    8.92174   26.53046
11 1 1  0.0941   13.92339   10.67102   26.43440
12 1 3 -0.1657   13.85818    8.49055   24.07644
13 1 1  0.1129   14.23133   10.60959   24.22767
14 1 1  0.1129   15.67764    9.62089   24.34694
15 1 2  0.4390   13.76148    8.52961   22.56873
16 1 1  0.1312   12.83399    8.50746   24.46392
17 1 1  0.1312   14.35072    7.55680   24.36895
18 1 5 -0.3794   12.96179    7.51033   22.10261
19 1 6 -0.4359   14.28878    9.35605   21.83253
20 1 3  0.0008   12.76894    7.54994   20.68214
21 1 3  0.0195   11.73844    6.51661   20.22407
22 1 1  0.1219   12.42233    8.54619   20.38191
23 1 1  0.1219   13.72393    7.35380   20.18042
24 1 5 -0.3565   11.50527    6.69116   18.80401
25 1 1  0.1179   10.80202    6.65426   20.77888
26 1 1  0.1179   12.10808    5.50297   20.42132
27 1 2  0.7407   10.53469    5.90958   18.26840
28 1 4 -1.0546   10.31811    6.23918   16.94821
29 1 6 -0.4865    9.92112    5.03989   18.87455
30 1 3  0.2076    9.35107    5.51070   16.14954
31 1 7  0.5322   10.96217    6.89515   16.52483
32 1 1  0.1454    8.55178    5.21866   16.84398
33 1 3 -0.0226    9.86730    4.25535   15.46461
34 1 3  0.0111    8.65965    6.20268   14.97291
35 1 1  0.1255   10.83831    4.41925   14.98441
36 1 1  0.1255    9.97382    3.40900   16.14991
37 1 5 -0.3689    8.90068    3.93803   14.42512
38 1 1  0.1393    8.01476    7.03328   15.27484
39 1 5 -0.3723    9.51497    6.64909   13.89062
40 1 3  0.0208    7.92027    5.01735   14.37384
41 1 3 -0.0207    8.99615    6.07574   12.63440
42 1 1  0.1340    7.02866    4.73499   14.94170
43 1 3  0.2091    7.62417    5.46716   12.94835
44 1 1  0.1324    9.71632    5.32092   12.29880
45 1 1  0.1324    8.94685    6.87009   11.88600
46 1 1  0.1237    6.88776    6.28042   12.99105
47 1 4 -1.0733    7.03690    4.44049   12.05936
48 1 2  0.7748    6.74609    4.64262   10.72244
49 1 7  0.5249    6.52110    3.67863   12.49931
50 1 5 -0.4183    5.90188    3.67860   10.21708
51 1 6 -0.4832    7.19750    5.56804   10.06278
52 1 3  0.0634    5.80879    3.49835    8.75937
53 1 3  0.0198    4.39344    3.68794    8.12798
54 1 1  0.1197    6.11787    2.46207    8.57934
55 1 1  0.1197    6.53779    4.12701    8.23838
56 1 5 -0.4027    4.32247    3.19421    6.73303
57 1 1  0.1181    4.13346    4.75227    8.14441
58 1 1  0.1181    3.65082    3.13972    8.71913
59 1 2  0.4426    3.14684    3.44492    6.04325
60 1 3 -0.1529    3.12232    2.82751    4.61753
61 1 6 -0.4357    2.21411    4.07039    6.53068
62 1 3 -0.1594    1.82194    3.15203    3.80156
63 1 1  0.1213    3.98819    3.21121    4.06556
64 1 1  0.1213    3.22334    1.74121    4.72091
65 1 3 -0.0332    1.66837    2.44560    2.42370
66 1 1  0.1149    1.78635    4.23431    3.63265
67 1 1  0.1149    0.94630    2.90686    4.41389
68 1 4 -0.4280    0.48986    2.97769    1.65411
69 1 1  0.0892    1.58311    1.36168    2.57091
70 1 1  0.0892    2.56141    2.63735    1.81897
71 1 2  0.0544    0.30020    2.35969    0.52288
72 1 3 -0.1386   -0.78963    2.71812   -0.52211
73 1 1  0.1101    0.90911    1.46809    0.29012
74 1 3 -0.1662   -0.54283    2.00295   -1.90591
75 1 1  0.1117   -0.91460    3.79622   -0.61601
76 1 1  0.1117   -1.73152    2.32964   -0.09262
77 1 3 -0.1611   -0.33652    2.76426   -3.29253
78 1 1  0.0891    0.32038    1.35905   -1.73760
79 1 1  0.0891   -1.46435    1.41342   -2.03664
80 1 3 -0.1542    0.47833    2.13698   -4.56005
81 1 1  0.0936    0.17932    3.68842   -3.02908
82 1 1  0.0936   -1.33685    3.00787   -3.65896
83 1 2  0.0635    0.14802    2.69330   -6.06245
84 1 1  0.1119    0.49847    1.04749   -4.55431
85 1 1  0.1119    1.52627    2.43045   -4.39425
86 1 4 -0.4528    0.28631    2.05145   -7.20087
87 1 1  0.1232   -0.10611    3.76582   -6.08145
88 1 3 -0.0397    0.08973    2.78049   -8.54771
89 1 3 -0.1560   -0.22157    1.83745   -9.81182
90 1 1  0.1017    1.01286    3.33190   -8.75664
91 1 1  0.1017   -0.73181    3.49910   -8.45138
92 1 3 -0.1823    0.40223    2.13991  -11.26015
93 1 1  0.1151   -1.30848    1.74480   -9.92207
94 1 1  0.1151    0.14952    0.84084   -9.54155
95 1 2  0.4493   -0.44357    2.71906  -12.45618
96 1 1  0.1306    0.74415    1.16447  -11.63857
97 1 1  0.1306    1.29240    2.76880  -11.16118
98 1 5 -0.3874    0.01175    2.27606  -13.70502
99 1 6 -0.4430   -1.31865    3.56690  -12.33395
100 1 3  0.0187   -0.50841    2.91250  -14.94692
101 1 3  0.0066   -0.21475    2.08343  -16.25322
102 1 1  0.1183   -1.59022    3.06432  -14.85925
103 1 1  0.1183   -0.03298    3.89549  -15.04053
104 1 5 -0.3476   -0.41165    2.82195  -17.51763
105 1 1  0.1200    0.82739    1.74708  -16.23891
106 1 1  0.1200   -0.85964    1.19710  -16.25196
107 1 2  0.7321   -0.44455    2.05520  -18.66837
108 1 4 -1.0419   -0.51499    2.80541  -19.83798
109 1 6 -0.4885   -0.41062    0.82835  -18.66787
110 1 3  0.1943   -0.59365    2.16589  -21.16232
111 1 7  0.5343   -0.42549    3.81058  -19.77498
112 1 1  0.1413   -1.31556    1.34417  -21.05109
113 1 3 -0.0239    0.69988    1.56745  -21.70562
114 1 3  0.0098   -1.04065    2.98136  -22.39157
115 1 1  0.1287    0.96747    0.62137  -21.22754
116 1 1  0.1287    1.54557    2.25667  -21.60659
117 1 5 -0.3667    0.48140    1.33773  -23.11883
118 1 1  0.1448   -2.08717    3.29872  -22.35290
119 1 5 -0.3663   -0.22146    4.12561  -22.73047
120 1 3  0.0174   -0.75511    1.98905  -23.50234
121 1 3 -0.0349    0.18381    4.00382  -24.14047
122 1 1  0.1402   -1.54549    1.25185  -23.61558
123 1 3  0.1930   -0.58640    2.83180  -24.74719
124 1 1  0.1348   -0.03519    4.94598  -24.65225
125 1 1  0.1348    1.26653    3.84018  -24.16020
126 1 1  0.1283   -1.56993    3.18640  -25.08159
127 1 4 -1.0405   -0.00078    2.10521  -25.87094
128 1 2  0.7505    0.29850    2.67483  -27.07741
129 1 7  0.5263   -0.08316    1.08617  -25.89337
130 1 5 -0.3884    0.53476    1.70491  -27.99654
131 1 6 -0.5081    0.35291    3.87238  -27.28406
132 1 3  0.0480    1.13357    2.09417  -29.25571
133 1 3 -0.0094    0.12772    2.39032  -30.37537
134 1 1  0.1325    1.77431    1.25466  -29.55024
135 1 1  0.1325    1.80731    2.94683  -29.11247
136 1 5 -0.3850    0.68427    1.90491  -31.61828
137 1 1  0.1248   -0.07442    3.46563  -30.41893
138 1 1  0.1248   -0.81654    1.86364  -30.20092
139 1 2  0.4482    0.30412    2.51704  -32.78574
140 1 3 -0.1900    0.70333    1.64366  -33.96071
141 1 6 -0.4387   -0.32597    3.56462  -32.83533
142 1 3 -0.1563    1.01314    2.37371  -35.27424
143 1 1  0.1271   -0.11771    0.93594  -34.11878
144 1 1  0.1271    1.59064    1.06971  -33.66498
145 1 3 -0.0771    1.52316    1.35634  -36.31041
146 1 1  0.1189    0.10861    2.87100  -35.64528
147 1 1  0.1189    1.76374    3.15495  -35.10924
148 1 4 -0.3646    1.78036    1.94893  -37.63917
149 1 1  0.0898    0.76609    0.55880  -36.37586
150 1 1  0.0898    2.43167    0.88307  -35.90960
151 1 2  0.0106    2.05092    0.94602  -38.50723
152 1 3 -0.2203    2.14523    1.21703  -39.96687
153 1 1  0.1346    2.10758   -0.10880  -38.22348
154 1 1  0.1071    3.19246    1.27459  -40.27759
155 1 1  0.1071    1.62845    2.13402  -40.26156
156 1 1  0.1071    1.68530    0.38709  -40.51805
157 1 1  0.1350   13.81744    6.96581   31.85285
158 1 2  0.0216   14.43923    6.15704   31.47347
159 1 3 -0.2213   15.73485    5.96212   32.19193
160 1 4 -0.3859   14.22164    5.48969   30.31670
161 1 1  0.1069   16.38436    5.22026   31.71897
162 1 1  0.1069   15.54808    5.65343   33.22565
163 1 1  0.1069   16.28070    6.91301   32.22898
164 1 3 -0.0651   13.07690    6.06066   29.58081
165 1 3 -0.1706   13.27170    6.04098   28.04341
166 1 1  0.0941   12.14046    5.55967   29.85187
167 1 1  0.0941   12.92476    7.12246   29.83379
168 1 3 -0.1657   12.65623    4.82709   27.31213
169 1 1  0.1129   12.79293    6.95193   27.66217
170 1 1  0.1129   14.33433    6.13369   27.78097
171 1 2  0.4390   12.26661    5.13302   25.86038
172 1 1  0.1312   11.74239    4.51189   27.82570
173 1 1  0.1312   13.37471    4.00060   27.32404
174 1 5 -0.3794   11.83432    4.01238   25.17836
175 1 6 -0.4359   12.26714    6.24025   25.34168
176 1 3  0.0008   11.48430    4.23244   23.77690
177 1 3  0.0195   10.42990    3.21128   23.29267
178 1 1  0.1219   11.09498    5.24377   23.61295
179 1 1  0.1219   12.40078    4.12863   23.18484
180 1 5 -0.3565   10.05042    3.37816   21.88834
181 1 1  0.1179    9.53463    3.32240   23.91612
182 1 1  0.1179   10.82441    2.19927   23.43905
183 1 2  0.7407    9.08205    2.50531   21.44851
184 1 4 -1.0546    8.67506    2.73156   20.14076
185 1 6 -0.4865    8.59636    1.62050   22.14442
186 1 3  0.2076    7.53890    1.99864   19.54856
187 1 7  0.5322    9.12657    3.50350   19.64373
188 1 1  0.1454    6.79238    1.90034   20.34866
189 1 3 -0.0226    7.82018    0.59918   19.00629
190 1 3  0.0111    6.82033    2.58495   18.32649
191 1 1  0.1255    8.73038    0.57886   18.39425
192 1 1  0.1255    7.92768   -0.14851   19.79768
193 1 5 -0.3689    6.68850    0.23225   18.14120
194 1 1  0.1393    6.27987    3.50980   18.55048
195 1 5 -0.3723    7.69069    2.83307   17.19200
196 1 3  0.0208    5.91106    1.42854   17.85316
197 1 3 -0.0207    7.21153    2.04431   16.06733
198 1 1  0.1340    4.96723    1.36493   18.40136
199 1 3  0.2091    5.74932    1.75870   16.34374
200 1 1  0.1324    7.82335    1.13857   15.99586
201 1 1  0.1324    7.32032    2.58324   15.13795
202 1 1  0.1237    5.19705    2.70841   16.29266
203 1 4 -1.0733    5.06046    0.87778   15.35679
204 1 2  0.7748    4.85740    1.25924   14.01461
205 1 7  0.5249    4.63024    0.02010   15.67509
206 1 5 -0.4183    4.04625    0.39867   13.28063
207 1 6 -0.4832    5.36372    2.26885   13.53309
208 1 3  0.0634    4.01948    0.49345   11.78035
209 1 3  0.0198    2.59175    0.44442   11.06492
210 1 1  0.1197    4.60094   -0.36773   11.43363
211 1 1  0.1197    4.55477    1.39094   11.45484
212 1 5 -0.4027    2.60884    0.10182    9.58451
213 1 1  0.1181    2.11823    1.42580   11.18197
214 1 1  0.1181    1.97136   -0.30446   11.56859
215 1 2  0.4426    1.41804    0.19673    8.83080
216 1 3 -0.1529    1.53526   -0.36800    7.32077
217 1 6 -0.4357    0.37331    0.60422    9.32376
218 1 3 -0.1594    0.36460   -0.09169    6.18740
219 1 1  0.1213    2.47250    0.03249    6.92087
220 1 1  0.1213    1.63162   -1.45420    7.43313
221 1 3 -0.0332    0.46708   -0.88382    4.73162
222 1 1  0.1149    0.33335    0.98812    6.00906
223 1 1  0.1149   -0.59466   -0.35831    6.65236
224 1 4 -0.4280   -0.38885   -0.38312    3.48499
225 1 1  0.0892    0.17080   -1.92191    4.92485
226 1 1  0.0892    1.51635   -0.85371    4.42635
227 1 2  0.0544   -0.30234   -1.05758    2.33624
228 1 3 -0.1386   -1.13555   -0.78808    0.85428
229 1 1  0.1101    0.30680   -1.97659    2.31358
230 1 3 -0.1662   -0.58390   -1.47527   -0.63252
231 1 1  0.1117   -1.33739    0.28154    0.77064
232 1 1  0.1117   -2.11576   -1.25791    1.03370
233 1 3 -0.1611   -0.87914   -1.05993   -2.26864
234 1 1  0.0891   -0.98289   -2.49255   -0.58484
235 1 1  0.0891    0.50215   -1.51045   -0.53758
236 1 3 -0.1542   -0.18822   -1.88224   -3.52734
237 1 1  0.0936   -1.94777   -0.89898   -2.45909
238 1 1  0.0936   -0.37198   -0.13362   -2.44502
239 1 2  0.0635   -0.38480   -1.47944   -5.07591
240 1 1  0.1119   -0.42453   -2.93962   -3.41035
241 1 1  0.1119    0.89157   -1.74553   -3.36763
242 1 4 -0.4528    0.00121   -2.34808   -6.08831
243 1 1  0.1232   -0.65143   -0.44908   -5.29589
244 1 3 -0.0397    0.20464   -1.73526   -7.50194
245 1 3 -0.1560    0.03158   -2.77190   -8.71124
246 1 1  0.1017    1.23187   -1.34683   -7.56695
247 1 1  0.1017   -0.46704   -0.89253   -7.70118
248 1 3 -0.1823    0.66702   -2.47752  -10.14993
249 1 1  0.1151   -1.03132   -3.00523   -8.83177
250 1 1  0.1151    0.51587   -3.70007   -8.37187
251 1 2  0.4493   -0.17418   -1.91879  -11.35572
252 1 1  0.1306    1.01130   -3.45991  -10.51169
253 1 1  0.1306    1.55922   -1.85210  -10.04324
254 1 5 -0.3874    0.35181   -2.28932  -12.60468
255 1 6 -0.4430   -1.13547   -1.16806  -11.25625
256 1 3  0.0187   -0.23452   -1.69868  -13.84549
257 1 3  0.0066    0.13978   -2.48621  -15.16296
258 1 1  0.1183   -1.32424   -1.65485  -13.74908
259 1 1  0.1183    0.14428   -0.67362  -13.92837
260 1 5 -0.3476   -0.32857   -1.90248  -16.44714
261 1 1  0.1200    1.23162   -2.55912  -15.22617
262 1 1  0.1200   -0.26335   -3.50068  -15.07140
263 1 2  0.7321   -0.22128   -2.74207  -17.55337
264 1 4 -1.0419   -0.61285   -2.19050  -18.78047
265 1 6 -0.4885    0.18822   -3.89591  -17.46674
266 1 3  0.1943   -0.50446   -2.97497  -20.04373
267 1 7  0.5343   -0.72004   -1.17561  -18.81937
268 1 1  0.1413   -0.70632   -4.01978  -19.77026
269 1 3 -0.0239    0.85501   -2.94318  -20.74211
270 1 3  0.0098   -1.41504   -2.67874  -21.25299
271 1 1  0.1287    1.59770   -3.56593  -20.23636
272 1 1  0.1287    1.25054   -1.92474  -20.81965
273 1 5 -0.3667    0.66706   -3.44590  -22.09525
274 1 1  0.1448   -2.46138   -2.95401  -21.08881
275 1 5 -0.3663   -1.38470   -1.31119  -21.70682
276 1 3  0.0174   -0.74972   -3.48559  -22.38533
277 1 3 -0.0349   -1.06548   -1.30863  -23.12237
278 1 1  0.1402   -1.05842   -4.53495  -22.41204
279 1 3  0.1930   -1.13421   -2.72066  -23.66264
280 1 1  0.1348   -1.79210   -0.68526  -23.64301
281 1 1  0.1348   -0.05715   -0.91122  -23.23769
282 1 1  0.1283   -2.18189   -2.94926  -23.89932
283 1 4 -1.0405   -0.38133   -2.98928  -24.90538
284 1 2  0.7505   -0.23139   -2.11628  -25.96721
285 1 7  0.5263   -0.19895   -3.95186  -25.15574
286 1 5 -0.3884    0.23463   -2.78022  -27.06624
287 1 6 -0.5081   -0.46481   -0.91430  -25.93235
288 1 3  0.0480    0.81719   -2.00551  -28.16157
289 1 3 -0.0094   -0.14218   -1.66144  -29.32194
290 1 1  0.1325    1.64995   -2.60997  -28.53977
291 1 1  0.1325    1.25843   -1.08870  -27.75405
292 1 5 -0.3850    0.28737   -2.31490  -30.55035
293 1 1  0.1248   -0.12326   -0.57849  -29.47667
294 1 1  0.1248   -1.16450   -1.98229  -29.10521
295 1 2  0.4482   -0.14066   -1.74941  -31.73820
296 1 3 -0.1900    0.25002   -2.65060  -32.90419
297 1 6 -0.4387   -0.81963   -0.73455  -31.79425
298 1 3 -0.1563    0.16989   -2.04305  -34.31202
299 1 1  0.1271   -0.42292   -3.51352  -32.85654
300 1 1  0.1271    1.27579   -2.99866  -32.73834
301 1 3 -0.0771    0.41156   -3.13473  -35.38560
302 1 1  0.1189   -0.80160   -1.55709  -34.46705
303 1 1  0.1189    0.92993   -1.25805  -34.41841
304 1 4 -0.3646    0.12533   -2.62620  -36.72451
305 1 1  0.0898   -0.23048   -3.99629  -35.16690
306 1 1  0.0898    1.45139   -3.47371  -35.27902
307 1 2  0.0106    0.69341   -3.34520  -37.71169
308 1 3 -0.2203    0.65030   -2.77058  -39.09637
309 1 1  0.1346    1.27867   -4.24812  -37.57666
310 1 1  0.1071    1.67004   -2.59906  -39.46030
311 1 1  0.1071    0.11123   -1.81880  -39.15522
312 1 1  0.1071    0.16910   -3.47565  -39.78200

Bonds

1 1 2 1
2 2 3 2
3 3 4 2
4 1 5 3
5 1 6 3
6 1 7 3
7 4 8 4
8 5 9 8
9 1 10 8
10 1 11 8
11 5 12 9
12 1 13 9
13 1 14 9
14 2 15 12
15 1 16 12
16 1 17 12
17 6 18 15
18 7 19 15
19 8 20 18
20 5 21 20
21 1 22 20
22 1 23 20
23 8 24 21
24 1 25 21
25 1 26 21
26 6 27 24
27 9 28 27
28 7 29 27
29 4 30 28
30 10 31 28
31 1 32 30
32 5 33 30
33 5 34 30
34 1 35 33
35 1 36 33
36 8 37 33
37 1 38 34
38 8 39 34
39 5 40 34
40 8 41 39
41 1 42 40
42 5 43 40
43 1 44 41
44 1 45 41
45 1 46 43
46 4 47 43
47 9 48 47
48 10 49 47
49 6 50 48
50 7 51 48
51 8 52 50
52 5 53 52
53 1 54 52
54 1 55 52
55 8 56 53
56 1 57 53
57 1 58 53
58 6 59 56
59 2 60 59
60 7 61 59
61 5 62 60
62 1 63 60
63 1 64 60
64 5 65 62
65 1 66 62
66 1 67 62
67 4 68 65
68 1 69 65
69 1 70 65
70 3 71 68
71 2 72 71
72 1 73 71
73 5 74 72
74 1 75 72
75 1 76 72
76 5 77 74
77 1 78 74
78 1 79 74
79 5 80 77
80 1 81 77
81 1 82 77
82 2 83 80
83 1 84 80
84 1 85 80
85 3 86 83
86 1 87 83
87 4 88 86
88 5 89 88
89 1 90 88
90 1 91 88
91 5 92 89
92 1 93 89
93 1 94 89
94 2 95 92
95 1 96 92
96 1 97 92
97 6 98 95
98 7 99 95
99 8 100 98
100 5 101 100
101 1 102 100
102 1 103 100
103 8 104 101
104 1 105 101
105 1 106 101
106 6 107 104
107 9 108 107
108 7 109 107
109 4 110 108
110 10 111 108
111 1 112 110
112 5 113 110
113 5 114 110
114 1 115 113
115 1 116 113
116 8 117 113
117 1 118 114
118 8 119 114
119 5 120 114
120 8 121 119
121 1 122 120
122 5 123 120
123 1 124 121
124 1 125 121
125 1 126 123
126 4 127 123
127 9 128 127
128 10 129 127
129 6 130 128
130 7 131 128
131 8 132 130
132 5 133 132
133 1 134 132
134 1 135 132
135 8 136 133
136 1 137 133
137 1 138 133
138 6 139 136
139 2 140 139
140 7 141 139
141 5 142 140
142 1 143 140
143 1 144 140
144 5 145 142
145 1 146 142
146 1 147 142
147 4 148 145
148 1 149 145
149 1 150 145
150 3 151 148
151 2 152 151
152 1 153 151
153 1 154 152
154 1 155 152
155 1 156 152
156 8 40 37
157 5 43 41
158 8 120 117
159 5 123 121
160 1 158 157
161 2 159 158
162 3 160 158
163 1 161 159
164 1 162 159
165 1 163 159
166 4 164 160
167 5 165 164
168 1 166 164
169 1 167 164
170 5 168 165
171 1 169 165
172 1 170 165
173 2 171 168
174 1 172 168
175 1 173 168
176 6 174 171
177 7 175 171
178 8 176 174
179 5 177 176
180 1 178 176
181 1 179 176
182 8 180 177
183 1 181 177
184 1 182 177
185 6 183 180
186 9 184 183
187 7 185 183
188 4 186 184
189 10 187 184
190 1 188 186
191 5 189 186
192 5 190 186
193 1 191 189
194 1 192 189
195 8 193 189
196 1 194 190
197 8 195 190
198 5 196 190
199 8 197 195
200 1 198 196
201 5 199 196
202 1 200 197
203 1 201 197
204 1 202 199
205 4 203 199
206 9 204 203
207 10 205 203
208 6 206 204
209 7 207 204
210 8 208 206
211 5 209 208
212 1 210 208
213 1 211 208
214 8 212 209
215 1 213 209
216 1 214 209
217 6 215 212
218 2 216 215
219 7 217 215
220 5 218 216
221 1 219 216
222 1 220 216
223 5 221 218
224 1 222 218
225 1 223 218
226 4 224 221
227 1 225 221
228 1 226 221
229 3 227 224
230 2 228 227
231 1 229 227
232 5 230 228
233 1 231 228
234 1 232 228
235 5 233 230
236 1 234 230
237 1 235 230
238 5 236 233
239 1 237 233
240 1 238 233
241 2 239 236
242 1 240 236
243 1 241 236
244 3 242 239
245 1 243 239
246 4 244 242
247 5 245 244
248 1 246 244
249 1 247 244
250 5 248 245
251 1 249 245
252 1 250 245
253 2 251 248
254 1 252 248
255 1 253 248
256 6 254 251
257 7 255 251
258 8 256 254
259 5 257 256
260 1 258 256
261 1 259 256
262 8 260 257
263 1 261 257
264 1 262 257
265 6 263 260
266 9 264 263
267 7 265 263
268 4 266 264
269 10 267 264
270 1 268 266
271 5 269 266
272 5 270 266
273 1 271 269
274 1 272 269
275 8 273 269
276 1 274 270
277 8 275 270
278 5 276 270
279 8 277 275
280 1 278 276
281 5 279 276
282 1 280 277
283 1 281 277
284 1 282 279
285 4 283 279
286 9 284 283
287 10 285 283
288 6 286 284
289 7 287 284
290 8 288 286
291 5 289 288
292 1 290 288
293 1 291 288
294 8 292 289
295 1 293 289
296 1 294 289
297 6 295 292
298 2 296 295
299 7 297 295
300 5 298 296
301 1 299 296
302 1 300 296
303 5 301 298
304 1 302 298
305 1 303 298
306 4 304 301
307 1 305 301
308 1 306 301
309 3 307 304
310 2 308 307
311 1 309 307
312 1 310 308
313 1 311 308
314 1 312 308
315 8 196 193
316 5 199 197
317 8 276 273
318 5 279 277

Angles

1 1 1 2 3
2 2 1 2 4
3 3 2 3 5
4 3 2 3 6
5 3 2 3 7
6 4 2 4 8
7 5 4 8 9
8 3 4 8 10
9 3 4 8 11
10 6 8 9 12
11 7 8 9 13
12 7 8 9 14
13 8 9 12 15
14 7 9 12 16
15 7 9 12 17
16 9 12 15 18
17 10 12 15 19
18 11 15 18 20
19 12 18 20 21
20 3 18 20 22
21 3 18 20 23
22 12 20 21 24
23 7 20 21 25
24 7 20 21 26
25 11 21 24 27
26 9 24 27 28
27 13 24 27 29
28 14 27 28 30
29 15 27 28 31
30 3 28 30 32
31 16 28 30 33
32 16 28 30 34
33 7 30 33 35
34 7 30 33 36
35 12 30 33 37
36 7 30 34 38
37 12 30 34 39
38 6 30 34 40
39 17 34 39 41
40 7 34 40 42
41 6 34 40 43
42 3 39 41 44
43 3 39 41 45
44 7 40 43 46
45 16 40 43 47
46 14 43 47 48
47 18 43 47 49
48 9 47 48 50
49 19 47 48 51
50 11 48 50 52
51 12 50 52 53
52 3 50 52 54
53 3 50 52 55
54 12 52 53 56
55 7 52 53 57
56 7 52 53 58
57 11 53 56 59
58 9 56 59 60
59 13 56 59 61
60 8 59 60 62
61 3 59 60 63
62 3 59 60 64
63 6 60 62 65
64 7 60 62 66
65 7 60 62 67
66 5 62 65 68
67 7 62 65 69
68 7 62 65 70
69 4 65 68 71
70 20 68 71 72
71 2 68 71 73
72 8 71 72 74
73 3 71 72 75
74 3 71 72 76
75 6 72 74 77
76 7 72 74 78
77 7 72 74 79
78 6 74 77 80
79 7 74 77 81
80 7 74 77 82
81 8 77 80 83
82 7 77 80 84
83 7 77 80 85
84 20 80 83 86
85 1 80 83 87
86 4 83 86 88
87 5 86 88 89
88 3 86 88 90
89 3 86 88 91
90 6 88 89 92
91 7 88 89 93
92 7 88 89 94
93 8 89 92 95
94 7 89 92 96
95 7 89 92 97
96 9 92 95 98
97 10 92 95 99
98 11 95 98 100
99 12 98 100 101
100 3 98 100 102
101 3 98 100 103
102 12 100 101 104
103 7 100 101 105
104 7 100 101 106
105 11 101 104 107
106 9 104 107 108
107 13 104 107 109
108 14 107 108 110
109 15 107 108 111
110 3 108 110 112
111 16 108 110 113
112 16 108 110 114
113 7 110 113 115
114 7 110 113 116
115 12 110 113 117
116 7 110 114 118
117 12 110 114 119
118 6 110 114 120
119 17 114 119 121
120 7 114 120 122
121 6 114 120 123
122 3 119 121 124
123 3 119 121 125
124 7 120 123 126
125 16 120 123 127
126 14 123 127 128
127 18 123 127 129
128 9 127 128 130
129 19 127 128 131
130 11 128 130 132
131 12 130 132 133
132 3 130 132 134
133 3 130 132 135
134 12 132 133 136
135 7 132 133 137
136 7 132 133 138
137 11 133 136 139
138 9 136 139 140
139 13 136 139 141
140 8 139 140 142
141 3 139 140 143
142 3 139 140 144
143 6 140 142 145
144 7 140 142 146
145 7 140 142 147
146 5 142 145 148
147 7 142 145 149
148 7 142 145 150
149 4 145 148 151
150 20 148 151 152
151 2 148 151 153
152 3 151 152 154
153 3 151 152 155
154 3 151 152 156
155 21 13 9 14
156 3 24 21 26
157 13 50 48 51
158 3 115 113 117
159 21 84 80 85
160 7 12 9 13
161 13 98 95 99
162 7 123 121 125
163 3 104 101 105
164 7 92 89 93
165 3 95 92 97
166 21 54 52 55
167 3 46 43 47
168 21 93 89 94
169 21 115 113 116
170 10 140 139 141
171 12 39 41 43
172 7 121 123 126
173 7 38 34 40
174 12 119 114 120
175 3 148 145 150
176 16 121 123 127
177 7 32 30 34
178 21 146 142 147
179 16 41 43 47
180 18 110 108 111
181 3 68 65 69
182 3 35 33 37
183 12 37 40 43
184 7 123 121 124
185 21 124 121 125
186 7 122 120 123
187 3 117 120 122
188 3 83 80 84
189 7 133 132 135
190 21 102 100 103
191 7 89 88 90
192 21 90 88 91
193 7 89 88 91
194 12 114 120 117
195 13 18 15 19
196 12 117 120 123
197 21 10 8 11
198 3 15 12 16
199 7 145 142 146
200 7 65 62 67
201 7 21 20 22
202 21 137 133 138
203 21 154 152 155
204 3 136 133 138
205 7 145 142 147
206 21 25 21 26
207 7 53 52 54
208 7 142 140 143
209 21 155 152 156
210 7 118 114 120
211 21 78 74 79
212 21 63 60 64
213 3 118 114 119
214 7 77 74 79
215 6 113 110 114
216 7 101 100 103
217 7 77 74 78
218 10 60 59 61
219 21 66 62 67
220 7 9 8 11
221 3 95 92 96
222 7 133 132 134
223 7 101 100 102
224 7 112 110 114
225 21 5 3 6
226 7 42 40 43
227 15 48 47 49
228 7 92 89 94
229 21 35 33 36
230 3 38 34 39
231 21 69 65 70
232 7 12 9 14
233 15 128 127 129
234 21 143 140 144
235 6 120 123 121
236 12 34 40 37
237 3 104 101 106
238 7 80 77 81
239 6 33 30 34
240 7 9 8 10
241 21 5 3 7
242 21 105 101 106
243 19 28 27 29
244 7 80 77 82
245 7 21 20 23
246 21 149 145 150
247 7 43 41 44
248 3 37 40 42
249 7 62 60 64
250 3 126 123 127
251 3 24 21 25
252 7 74 72 75
253 7 41 43 46
254 3 68 65 70
255 21 96 92 97
256 7 74 72 76
257 6 40 43 41
258 7 32 30 33
259 18 30 28 31
260 21 6 3 7
261 21 81 77 82
262 21 75 72 76
263 21 16 12 17
264 12 39 34 40
265 7 53 52 55
266 7 43 41 45
267 3 56 53 57
268 1 152 151 153
269 17 33 37 40
270 3 56 53 58
271 21 57 53 58
272 17 113 117 120
273 3 148 145 149
274 7 142 140 144
275 21 44 41 45
276 7 65 62 66
277 21 134 132 135
278 12 119 121 123
279 19 108 107 109
280 3 36 33 37
281 7 62 60 63
282 20 3 2 4
283 21 22 20 23
284 7 112 110 113
285 3 116 113 117
286 2 86 83 87
287 3 83 80 85
288 1 72 71 73
289 13 130 128 131
290 3 136 133 137
291 21 154 152 156
292 3 15 12 17
293 1 157 158 159
294 2 157 158 160
295 3 158 159 161
296 3 158 159 162
297 3 158 159 163
298 4 158 160 164
299 5 160 164 165
300 3 160 164 166
301 3 160 164 167
302 6 164 165 168
303 7 164 165 169
304 7 164 165 170
305 8 165 168 171
306 7 165 168 172
307 7 165 168 173
308 9 168 171 174
309 10 168 171 175
310 11 171 174 176
311 12 174 176 177
312 3 174 176 178
313 3 174 176 179
314 12 176 177 180
315 7 176 177 181
316 7 176 177 182
317 11 177 180 183
318 9 180 183 184
319 13 180 183 185
320 14 183 184 186
321 15 183 184 187
322 3 184 186 188
323 16 184 186 189
324 16 184 186 190
325 7 186 189 191
326 7 186 189 192
327 12 186 189 193
328 7 186 190 194
329 12 186 190 195
330 6 186 190 196
331 17 190 195 197
332 7 190 196 198
333 6 190 196 199
334 3 195 197 200
335 3 195 197 201
336 7 196 199 202
337 16 196 199 203
338 14 199 203 204
339 18 199 203 205
340 9 203 204 206
341 19 203 204 207
342 11 204 206 208
343 12 206 208 209
344 3 206 208 210
345 3 206 208 211
346 12 208 209 212
347 7 208 209 213
348 7 208 209 214
349 11 209 212 215
350 9 212 215 216
351 13 212 215 217
352 8 215 216 218
353 3 215 216 219
354 3 215 216 220
355 6 216 218 221
356 7 216 218 222
357 7 216 218 223
358 5 218 221 224
359 7 218 221 225
360 7 218 221 226
361 4 221 224 227
362 20 224 227 228
363 2 224 227 229
364 8 227 228 230
365 3 227 228 231
366 3 227 228 232
367 6 228 230 233
368 7 228 230 234
369 7 228 230 235
370 6 230 233 236
371 7 230 233 237
372 7 230 233 238
373 8 233 236 239
374 7 233 236 240
375 7 233 236 241
376 20 236 239 242
377 1 236 239 243
378 4 239 242 244
379 5 242 244 245
380 3 242 244 246
381 3 242 244 247
382 6 244 245 248
383 7 244 245 249
384 7 244 245 250
385 8 245 248 251
386 7 245 248 252
387 7 245 248 253
388 9 248 251 254
389 10 248 251 255
390 11 251 254 256
391 12 254 256 257
392 3 254 256 258
393 3 254 256 259
394 12 256 257 260
395 7 256 257 261
396 7 256 257 262
397 11 257 260 263
398 9 260 263 264
399 13 260 263 265
400 14 263 264 266
401 15 263 264 267
402 3 264 266 268
403 16 264 266 269
404 16 264 266 270
405 7 266 269 271
406 7 266 269 272
407 12 266 269 273
408 7 266 270 274
409 12 266 270 275
410 6 266 270 276
411 17 270 275 277
412 7 270 276 278
413 6 270 276 279
414 3 275 277 280
415 3 275 277 281
416 7 276 279 282
417 16 276 279 283
418 14 279 283 284
419 18 279 283 285
420 9 283 284 286
421 19 283 284 287
422 11 284 286 288
423 12 286 288 289
424 3 286 288 290
425 3 286 288 291
426 12 288 289 292
427 7 288 289 293
428 7 288 289 294
429 11 289 292 295
430 9 292 295 296
431 13 292 295 297
432 8 295 296 298
433 3 295 296 299
434 3 295 296 300
435 6 296 298 301
436 7 296 298 302
437 7 296 298 303
438 5 298 301 304
439 7 298 301 305
440 7 298 301 306
441 4 301 304 307
442 20 304 307 308
443 2 304 307 309
444 3 307 308 310
445 3 307 308 311
446 3 307 308 312
447 21 169 165 170
448 3 180 177 182
449 13 206 204 207
450 3 271 269 273
451 21 240 236 241
452 7 168 165 169
453 13 254 251 255
454 7 279 277 281
455 3 260 257 261
456 7 248 245 249
457 3 251 248 253
458 21 210 208 211
459 3 202 199 203
460 21 249 245 250
461 21 271 269 272
462 10 296 295 297
463 12 195 197 199
464 7 277 279 282
465 7 194 190 196
466 12 275 270 276
467 3 304 301 306
468 16 277 279 283
469 7 188 186 190
470 21 302 298 303
471 16 197 199 203
472 18 266 264 267
473 3 224 221 225
474 3 191 189 193
475 12 193 196 199
476 7 279 277 280
477 21 280 277 281
478 7 278 276 279
479 3 273 276 278
480 3 239 236 240
481 7 289 288 291
482 21 258 256 259
483 7 245 244 246
484 21 246 244 247
485 7 245 244 247
486 12 270 276 273
487 13 174 171 175
488 12 273 276 279
489 21 166 164 167
490 3 171 168 172
491 7 301 298 302
492 7 221 218 223