#Polymer: N4

328 atoms
334 bonds
624 angles
874 dihedrals
200 impropers

7 atom types
10 bond types
22 angle types
28 dihedral types
3 improper types

 -50.00000   50.00000 xlo xhi
 -50.00000   50.00000 ylo yhi
 -50.00000   50.00000 zlo zhi

Masses

1 1.008
2 12.011
3 12.011
4 14.007
5 15.999
6 15.999
7 1.008

Pair Coeffs

1    0.030 2.5000000
2    0.070 3.5500000
3    0.066 3.5000000
4    0.170 3.2500000
5    0.140 2.9000000
6    0.210 2.9600000
7    0.000 0.0000000

Bond Coeffs

1 340.0000   1.0900
2 317.0000   1.5220
3 457.0000   1.3580
4 337.0000   1.4490
5 268.0000   1.5290
6 214.0000   1.3270
7 570.0000   1.2290
8 320.0000   1.4100
9 490.0000   1.3350
10 434.0000   1.0100

Angle Coeffs

1   35.000  115.000
2   35.000  122.000
3   35.000  109.500
4   70.000  120.500
5   65.000  109.000
6   58.350  112.700
7   37.500  110.700
8   63.000  111.100
9   81.000  111.400
10   80.000  120.400
11   83.000  116.900
12   50.000  109.500
13   70.000  116.600
14   50.000  121.900
15   35.000  119.800
16   80.000  109.700
17   60.000  109.500
18   38.000  118.400
19   80.000  122.900
20   83.000  123.400
21   69.900  118.180
22   33.000  107.800

Dihedral Coeffs

1    0.000    0.000    0.360    0.000
2    2.300    6.089    0.000    0.000
3    0.000    0.462    0.000    0.000
4    2.392   -0.674    0.550    0.000
5   -2.060   -0.313    0.315    0.000
6    0.000    0.000   -0.553    0.000
7    4.669    5.124    0.000    0.000
8   -1.220   -0.126    0.422    0.000
9    1.711   -0.500    0.663    0.000
10    1.173    0.189   -1.200    0.000
11    0.000    0.000    0.000    0.000
12    0.000    0.000    0.464    0.000
13    0.650   -0.250    0.670    0.000
14    0.000   14.000    0.000    0.000
15    1.300   -0.200    0.200    0.000
16    0.000    0.000    0.760    0.000
17    0.000    0.000    0.300    0.000
18    0.000    0.000    0.198    0.000
19    0.000    0.000   -0.100    0.000
20   -1.013   -0.709    0.473    0.000
21    0.000    0.000    0.468    0.000
22    0.000    4.900    0.000    0.000
23    0.000    6.089    0.000    0.000
24    0.000    5.124    0.000    0.000
25    6.280   -1.467    2.030    0.000
26   -0.550    0.000    0.000    0.000
27    0.000    0.000    0.132    0.000
28    0.845   -0.962    0.713    0.000

Improper Coeffs

1   10.500  -1   2
2    0.000  -1   2
3    2.500  -1   2

Atoms

1 1 1  0.1350    0.50756    5.46110   36.06610
2 1 2  0.0107    1.26418    6.20870   35.82946
3 1 3 -0.2222    2.40432    6.28172   36.79206
4 1 4 -0.3697    1.32249    6.92283   34.68512
5 1 1  0.1066    2.48772    5.33441   37.33822
6 1 1  0.1066    2.23426    7.07093   37.53051
7 1 1  0.1066    3.36325    6.45515   36.29438
8 1 3 -0.0757    0.23012    6.53626   33.78173
9 1 3 -0.1658    0.33450    7.25567   32.42577
10 1 1  0.0938   -0.73962    6.79947   34.22477
11 1 1  0.0938    0.19373    5.45309   33.61135
12 1 3 -0.1801    0.88584    6.36905   31.30442
13 1 1  0.1144   -0.67027    7.58327   32.13639
14 1 1  0.1144    0.95139    8.15907   32.50563
15 1 2  0.4367    0.76556    7.02110   29.94292
16 1 1  0.1349    0.33345    5.42188   31.28120
17 1 1  0.1349    1.94603    6.19219   31.49234
18 1 5 -0.3679    0.74770    6.09998   28.91337
19 1 6 -0.4496    0.69683    8.23113   29.74516
20 1 3  0.0073    0.62734    6.72715   27.62507
21 1 3 -0.1775    0.52085    5.70851   26.48358
22 1 1  0.1021   -0.27309    7.35134   27.62142
23 1 1  0.1021    1.51105    7.35403   27.45704
24 1 3 -0.1945    0.29809    6.41165   25.13203
25 1 1  0.1208   -0.29173    5.00157   26.69032
26 1 1  0.1208    1.44168    5.11803   26.45376
27 1 2  0.6108    0.11087    5.47806   23.93823
28 1 1  0.1196    1.16628    7.04387   24.91233
29 1 1  0.1196   -0.58560    7.05491   25.20242
30 1 4 -1.1029   -0.39163    6.10100   22.79847
31 1 6 -0.4384    0.40277    4.28473   23.96326
32 1 3  0.1878   -0.50215    5.37682   21.53788
33 1 7  0.5272   -0.45000    7.11285   22.77325
34 1 1  0.1463   -0.74078    4.33268   21.78524
35 1 3 -0.0229    0.74571    5.40168   20.66978
36 1 3  0.0101   -1.53526    5.84460   20.51118
37 1 1  0.1211    1.53660    4.74056   21.03109
38 1 1  0.1211    1.17649    6.40624   20.60105
39 1 5 -0.3695    0.31619    5.01297   19.33793
40 1 1  0.1386   -2.57163    5.71103   20.83536
41 1 5 -0.3810   -1.36823    7.21344   20.05151
42 1 3  0.0102   -1.13577    4.99994   19.30996
43 1 3 -0.0073   -1.24941    7.18991   18.58480
44 1 1  0.1335   -1.48419    3.96303   19.35712
45 1 3  0.1914   -1.68776    5.79503   18.13203
46 1 1  0.1297   -0.20077    7.39258   18.33686
47 1 1  0.1297   -1.86482    7.99155   18.17051
48 1 1  0.1173   -2.78456    5.75109   18.16927
49 1 4 -1.0970   -1.30770    5.30035   16.79227
50 1 2  0.6068   -1.78805    5.87165   15.61510
51 1 7  0.5186   -0.95040    4.34364   16.74706
52 1 3 -0.1877   -1.78750    4.94554   14.36893
53 1 6 -0.4351   -2.28917    6.99275   15.59351
54 1 3 -0.1746   -1.68547    5.62307   12.96062
55 1 1  0.1153   -0.96893    4.22723   14.47412
56 1 1  0.1153   -2.72305    4.37557   14.43252
57 1 3  0.0169   -2.59196    4.99561   11.84568
58 1 1  0.1196   -0.64016    5.56501   12.63246
59 1 1  0.1196   -1.91050    6.69267   13.03237
60 1 5 -0.3829   -2.22888    5.40857   10.46845
61 1 1  0.1035   -3.63167    5.27940   12.04539
62 1 1  0.1035   -2.50319    3.90406   11.88582
63 1 2  0.4420   -3.14584    5.11893    9.45948
64 1 3 -0.1746   -2.61337    5.43140    8.01533
65 1 6 -0.4431   -4.24379    4.62498    9.68397
66 1 3 -0.1647   -3.66367    5.25700    6.81980
67 1 1  0.1252   -2.24320    6.46334    8.02258
68 1 1  0.1252   -1.76773    4.75634    7.84605
69 1 3 -0.0436   -3.12965    5.30451    5.31212
70 1 1  0.1176   -4.18376    4.30537    6.96711
71 1 1  0.1176   -4.41848    6.04495    6.94072
72 1 4 -0.4170   -4.17048    4.88414    4.23996
73 1 1  0.0916   -2.27689    4.62232    5.24154
74 1 1  0.0916   -2.77085    6.32214    5.10562
75 1 2  0.0439   -3.81807    4.92382    2.97255
76 1 3 -0.1422   -4.71314    4.44989    1.64326
77 1 1  0.1137   -2.82156    5.33511    2.71266
78 1 3 -0.1719   -4.65309    2.92700    0.96990
79 1 1  0.1157   -5.74246    4.56666    2.01252
80 1 1  0.1157   -4.60962    5.24272    0.90147
81 1 3 -0.1683   -4.29368    1.97124   -0.47165
82 1 1  0.0907   -5.58743    2.47349    1.32015
83 1 1  0.0907   -3.91311    2.49612    1.62615
84 1 3 -0.1465   -4.24186    2.22386   -2.06637
85 1 1  0.0933   -3.31374    1.53037   -0.24919
86 1 1  0.0933   -4.97373    1.11805   -0.35328
87 1 2  0.0604   -4.07107    1.19939   -3.33189
88 1 1  0.1125   -3.33663    2.80410   -2.22745
89 1 1  0.1125   -5.16382    2.74357   -2.33467
90 1 4 -0.4514   -3.88105    1.67593   -4.53660
91 1 1  0.1179   -4.18848    0.11921   -3.13713
92 1 3 -0.0379   -3.89568    0.82139   -5.79214
93 1 3 -0.1591   -3.38906    1.58463   -7.09650
94 1 1  0.1010   -3.27146   -0.07110   -5.65983
95 1 1  0.1010   -4.92675    0.50146   -5.96563
96 1 3 -0.1844   -4.29377    1.56681   -8.38904
97 1 1  0.1144   -3.25441    2.63920   -6.82521
98 1 1  0.1144   -2.39065    1.21639   -7.36938
99 1 2  0.4448   -3.88965    0.71318   -9.61619
100 1 1  0.1307   -4.29508    2.59058   -8.77902
101 1 1  0.1307   -5.32931    1.32256   -8.13824
102 1 5 -0.3817   -4.31381    1.29879  -10.80113
103 1 6 -0.4479   -3.34891   -0.38236   -9.55383
104 1 3  0.0188   -4.13881    0.54316  -12.04396
105 1 3 -0.1834   -4.41613    1.43290  -13.28397
106 1 1  0.1023   -3.11692    0.15237  -12.09736
107 1 1  0.1023   -4.84833   -0.29192  -12.03480
108 1 3 -0.1908   -4.35925    0.68360  -14.64016
109 1 1  0.1215   -3.69378    2.25882  -13.29388
110 1 1  0.1215   -5.39865    1.90836  -13.17376
111 1 2  0.6068   -4.54680    1.59691  -15.86080
112 1 1  0.1196   -5.15365   -0.07077  -14.67636
113 1 1  0.1196   -3.39445    0.17564  -14.74503
114 1 4 -1.0967   -4.32718    0.97599  -17.08749
115 1 6 -0.4405   -4.86845    2.77992  -15.75561
116 1 3  0.1833   -4.54372    1.68670  -18.34485
117 1 7  0.5280   -4.24374   -0.03272  -17.14129
118 1 1  0.1441   -4.25162    2.73079  -18.17510
119 1 3 -0.0208   -5.97512    1.65152  -18.86594
120 1 3  0.0112   -3.78763    1.21106  -19.58624
121 1 1  0.1217   -6.63113    2.37095  -18.36854
122 1 1  0.1217   -6.42820    0.66050  -18.75941
123 1 5 -0.3795   -5.90353    1.94777  -20.27911
124 1 1  0.1423   -2.70821    1.38394  -19.54394
125 1 5 -0.3784   -4.02155   -0.17141  -19.95910
126 1 3  0.0071   -4.49841    2.01079  -20.65658
127 1 3 -0.0211   -4.46731   -0.18604  -21.36193
128 1 1  0.1424   -4.18229    3.05707  -20.71901
129 1 3  0.1874   -4.23420    1.21950  -21.91733
130 1 1  0.1238   -3.91534   -0.95633  -21.90635
131 1 1  0.1238   -5.53064   -0.45477  -21.36587
132 1 1  0.1394   -3.17980    1.32495  -22.20351
133 1 4 -1.1020   -5.03795    1.66162  -23.04916
134 1 2  0.6063   -4.89563    1.11874  -24.31366
135 1 7  0.5279   -5.43451    2.60026  -22.99551
136 1 3 -0.2025   -5.63444    1.90822  -25.38598
137 1 6 -0.4407   -4.20802    0.13001  -24.53935
138 1 3 -0.1768   -6.02020    1.10679  -26.63211
139 1 1  0.1215   -6.56305    2.27555  -24.93352
140 1 1  0.1215   -5.02442    2.78019  -25.64619
141 1 3  0.0092   -4.97576    1.12849  -27.75548
142 1 1  0.1182   -6.96542    1.51413  -27.01506
143 1 1  0.1182   -6.22097    0.06719  -26.34952
144 1 5 -0.3933   -5.56354    1.79191  -28.89243
145 1 1  0.1189   -4.07116    1.67471  -27.46936
146 1 1  0.1189   -4.70544    0.09812  -28.01069
147 1 2  0.4466   -5.10146    1.42837  -30.12996
148 1 3 -0.1938   -5.81433    2.22897  -31.20113
149 1 6 -0.4321   -4.21970    0.59778  -30.31115
150 1 3 -0.1645   -5.75559    1.57346  -32.58612
151 1 1  0.1269   -5.35993    3.22557  -31.23402
152 1 1  0.1269   -6.86420    2.33804  -30.90302
153 1 3 -0.0796   -6.58593    2.37594  -33.59681
154 1 1  0.1193   -4.71271    1.51005  -32.92104
155 1 1  0.1193   -6.13080    0.54408  -32.52858
156 1 4 -0.3557   -6.49933    1.80645  -34.95480
157 1 1  0.0899   -6.22721    3.41628  -33.57596
158 1 1  0.0899   -7.62607    2.40128  -33.23912
159 1 2  0.0042   -7.20890    2.57742  -35.80660
160 1 3 -0.2217   -7.22119    2.25194  -37.25763
161 1 1  0.1346   -7.77538    3.46234  -35.50695
162 1 1  0.1069   -6.48535    1.49020  -37.52941
163 1 1  0.1069   -7.00164    3.15644  -37.83596
164 1 1  0.1069   -8.21551    1.90277  -37.55347
165 1 1  0.1350    1.28908    1.85014   37.60723
166 1 2  0.0107    2.29923    1.93397   37.21331
167 1 3 -0.2222    3.35648    2.27796   38.21193
168 1 4 -0.3697    2.61553    1.98475   35.90076
169 1 1  0.1066    3.51722    1.43969   38.89628
170 1 1  0.1066    3.02679    3.13510   38.81195
171 1 1  0.1066    4.31341    2.54425   37.75275
172 1 3 -0.0757    1.40873    2.06939   35.05818
173 1 3 -0.1658    1.63927    2.90830   33.77581
174 1 1  0.0938    0.57537    2.56046   35.58571
175 1 1  0.0938    1.04416    1.07206   34.78630
176 1 3 -0.1801    2.23216    2.11269   32.60151
177 1 1  0.1144    0.66117    3.29128   33.45855
178 1 1  0.1144    2.25697    3.78949   33.99574
179 1 2  0.4367    2.23723    2.86951   31.27756
180 1 1  0.1349    1.64436    1.19873   32.47012
181 1 1  0.1349    3.26609    1.83293   32.82517
182 1 5 -0.3679    1.94680    2.07120   30.18947
183 1 6 -0.4496    2.54164    4.04988   31.14335
184 1 3  0.0073    1.87099    2.77502   28.90738
185 1 3 -0.1775    1.89185    1.76409   27.72126
186 1 1  0.1021    0.93318    3.34090   28.91252
187 1 1  0.1021    2.71336    3.47230   28.81660
188 1 3 -0.1945    1.68108    2.34089   26.26939
189 1 1  0.1208    1.12636    1.00634   27.92280
190 1 1  0.1208    2.85123    1.23527   27.76450
191 1 2  0.6108    1.72391    1.26964   25.08625
192 1 1  0.1196    2.45934    3.09224   26.08926
193 1 1  0.1196    0.70696    2.84181   26.25752
194 1 4 -1.1029    1.41963    1.67486   23.76611
195 1 6 -0.4384    2.02166    0.09665   25.31591
196 1 3  0.1878    1.21511    0.72560   22.57916
197 1 7  0.5272    1.04884    2.62758   23.67882
198 1 1  0.1463    0.67097   -0.13681   22.98490
199 1 3 -0.0229    2.42640    0.16866   21.79640
200 1 3  0.0101    0.43030    1.25486   21.35142
201 1 1  0.1211    2.91783   -0.67203   22.29282
202 1 1  0.1211    3.17976    0.93523   21.58300
203 1 5 -0.3695    1.94552   -0.31960   20.47818
204 1 1  0.1386   -0.62136    1.46555   21.56605
205 1 5 -0.3810    1.03330    2.44781   20.77714
206 1 3  0.0102    0.60975    0.19530   20.24349
207 1 3 -0.0073    1.35870    2.19593   19.38043
208 1 1  0.1335   -0.09555   -0.64022   20.28229
209 1 3  0.1914    0.45427    1.05995   18.95921
210 1 1  0.1297    2.42000    1.93052   19.31042
211 1 1  0.1297    1.21946    3.08004   18.76485
212 1 1  0.1173   -0.58257    1.42604   18.94764
213 1 4 -1.0970    0.67861    0.53429   17.59169
214 1 2  0.6068    0.28058    1.25954   16.44989
215 1 7  0.5186    1.28395   -0.27173   17.48466
216 1 3 -0.1877    0.42872    0.52592   15.08708
217 1 6 -0.4351   -0.25729    2.36543   16.52762
218 1 3 -0.1746    0.52130    1.40488   13.78908
219 1 1  0.1153    1.31817   -0.11273   15.13683
220 1 1  0.1153   -0.44317   -0.13479   15.01144
221 1 3  0.0169   -0.41841    0.96465   12.61755
222 1 1  0.1196    1.55728    1.37472   13.42773
223 1 1  0.1196    0.33195    2.45857   14.01484
224 1 5 -0.3829   -0.03743    1.52660   11.30881
225 1 1  0.1035   -1.44128    1.28220   12.85078
226 1 1  0.1035   -0.38677   -0.12607   12.52533
227 1 2  0.4420   -0.86720    1.20926   10.23692
228 1 3 -0.1746   -0.29173    1.68126    8.86966
229 1 6 -0.4431   -1.90475    0.57233   10.36229
230 1 3 -0.1647   -1.22261    1.54955    7.59306
231 1 1  0.1252   -0.00895    2.73390    8.98129
232 1 1  0.1252    0.61430    1.08871    8.70023
233 1 3 -0.0436   -0.48582    1.80702    6.21175
234 1 1  0.1176   -1.66531    0.54530    7.58165
235 1 1  0.1176   -2.06103    2.24725    7.70651
236 1 4 -0.4170   -1.38582    1.98691    5.00798
237 1 1  0.0916    0.19193    0.96629    6.02901
238 1 1  0.0916    0.10274    2.72343    6.31942
239 1 2  0.0439   -0.81461    2.17264    3.83989
240 1 3 -0.1422   -1.64242    2.55326    2.53987
241 1 1  0.1137    0.28014    2.14939    3.73427
242 1 3 -0.1719   -1.09610    2.68317    1.02120
243 1 1  0.1157   -2.45755    1.82211    2.56023
244 1 1  0.1157   -2.01948    3.52721    2.79823
245 1 3 -0.1683   -1.56995    3.90636   -0.10825
246 1 1  0.0907   -1.27381    1.71271    0.53721
247 1 1  0.0907   -0.00383    2.75720    1.09403
248 1 3 -0.1465   -2.45791    5.04331   -1.01381
249 1 1  0.0933   -2.55605    3.58194    0.19397
250 1 1  0.0933   -1.10322    4.68787    0.50258
251 1 2  0.0604   -3.44673    5.01660   -2.30892
252 1 1  0.1125   -1.75109    5.84572   -1.24797
253 1 1  0.1125   -3.12738    5.48576   -0.27394
254 1 4 -0.4514   -3.25268    5.54758   -3.49320
255 1 1  0.1179   -4.43640    4.58019   -2.11163
256 1 3 -0.0379   -4.36367    5.32437   -4.54050
257 1 3 -0.1591   -4.31820    6.34620   -5.73840
258 1 1  0.1010   -4.24046    4.31990   -4.95394
259 1 1  0.1010   -5.35499    5.38416   -4.06983
260 1 3 -0.1844   -5.32873    6.16463   -6.94561
261 1 1  0.1144   -4.53505    7.33328   -5.30651
262 1 1  0.1144   -3.29906    6.39561   -6.13176
263 1 2  0.4448   -4.78457    5.52019   -8.24251
264 1 1  0.1307   -5.64184    7.17512   -7.25036
265 1 1  0.1307   -6.22741    5.62322   -6.63092
266 1 5 -0.3817   -5.63159    5.70738   -9.32161
267 1 6 -0.4479   -3.73876    4.88952   -8.30202
268 1 3  0.0188   -5.32752    5.02215  -10.59266
269 1 3 -0.1834   -5.75710    5.86372  -11.82464
270 1 1  0.1023   -4.25982    4.79091  -10.66048
271 1 1  0.1023   -5.89217    4.08303  -10.58577
272 1 3 -0.1908   -5.64247    5.15947  -13.21440
273 1 1  0.1215   -5.15049    6.77776  -11.83762
274 1 1  0.1215   -6.79067    6.20284  -11.68272
275 1 2  0.6068   -5.95578    6.10949  -14.39099
276 1 1  0.1196   -6.34525    4.31995  -13.26247
277 1 1  0.1196   -4.62748    4.77068  -13.35160
278 1 4 -1.0967   -5.74321    5.62134  -15.67466
279 1 6 -0.4405   -6.36167    7.25612  -14.20473
280 1 3  0.1833   -5.87588    6.50475  -16.84474
281 1 7  0.5280   -5.48979    4.63826  -15.81754
282 1 1  0.1441   -5.41575    7.46347  -16.57051
283 1 3 -0.0208   -7.29218    6.79130  -17.33911
284 1 3  0.0112   -5.23605    6.05288  -18.15299
285 1 1  0.1217   -7.82659    7.51069  -16.71389
286 1 1  0.1217   -7.89561    5.87758  -17.40137
287 1 5 -0.3795   -7.16511    7.33336  -18.68811
288 1 1  0.1423   -4.14209    6.04294  -18.13250
289 1 5 -0.3784   -5.68708    4.74165  -18.57339
290 1 3  0.0071   -5.83020    7.03207  -19.17506
291 1 3 -0.0211   -6.35660    4.89457  -19.84437
292 1 1  0.1424   -5.27656    7.97006  -19.27010
293 1 3  0.1874   -5.83754    6.18184  -20.44068
294 1 1  0.1238   -6.14713    4.07362  -20.51334
295 1 1  0.1238   -7.43901    4.90420  -19.67341
296 1 1  0.1394   -4.79603    6.03114  -20.76009
297 1 4 -1.1020   -6.58273    6.61603  -21.61251
298 1 2  0.6063   -6.49966    5.87231  -22.79093
299 1 7  0.5279   -7.39256    7.20906  -21.46836
300 1 3 -0.2025   -7.44217    6.33693  -23.89745
301 1 6 -0.4407   -5.72787    4.92320  -22.92413
302 1 3 -0.1768   -7.66892    5.27653  -24.98749
303 1 1  0.1215   -8.41025    6.55075  -23.42937
304 1 1  0.1215   -7.05643    7.26798  -24.32469
305 1 3  0.0092   -6.68280    5.34575  -26.16093
306 1 1  0.1182   -8.68761    5.39566  -25.37769
307 1 1  0.1182   -7.61982    4.27975  -24.53642
308 1 5 -0.3933   -7.29857    6.09175  -27.22460
309 1 1  0.1189   -5.73886    5.82467  -25.88182
310 1 1  0.1189   -6.48174    4.32729  -26.50445
311 1 2  0.4466   -6.89875    5.74858  -28.49734
312 1 3 -0.1938   -7.75897    6.49747  -29.48894
313 1 6 -0.4321   -5.96825    4.99660  -28.74188
314 1 3 -0.1645   -7.73611    5.95570  -30.91557
315 1 1  0.1269   -7.42475    7.54038  -29.48526
316 1 1  0.1269   -8.79220    6.45978  -29.12322
317 1 3 -0.0796   -8.70753    6.78012  -31.78631
318 1 1  0.1193   -6.71606    6.00061  -31.31922
319 1 1  0.1193   -8.02409    4.89544  -30.92625
320 1 4 -0.3557   -8.58222    6.39682  -33.18210
321 1 1  0.0899   -8.48101    7.84549  -31.64989
322 1 1  0.0899   -9.72493    6.61708  -31.40499
323 1 2  0.0042   -9.47662    6.98827  -33.99172
324 1 3 -0.2217   -9.44764    6.58377  -35.43235
325 1 1  0.1346  -10.23927    7.69371  -33.68187
326 1 1  0.1069   -8.61281    5.91662  -35.67415
327 1 1  0.1069   -9.36054    7.47172  -36.06645
328 1 1  0.1069  -10.37801    6.06997  -35.69555

Bonds

1 1 2 1
2 2 3 2
3 3 4 2
4 1 5 3
5 1 6 3
6 1 7 3
7 4 8 4
8 5 9 8
9 1 10 8
10 1 11 8
11 5 12 9
12 1 13 9
13 1 14 9
14 2 15 12
15 1 16 12
16 1 17 12
17 6 18 15
18 7 19 15
19 8 20 18
20 5 21 20
21 1 22 20
22 1 23 20
23 5 24 21
24 1 25 21
25 1 26 21
26 2 27 24
27 1 28 24
28 1 29 24
29 9 30 27
30 7 31 27
31 4 32 30
32 10 33 30
33 1 34 32
34 5 35 32
35 5 36 32
36 1 37 35
37 1 38 35
38 8 39 35
39 1 40 36
40 8 41 36
41 5 42 36
42 8 43 41
43 1 44 42
44 5 45 42
45 1 46 43
46 1 47 43
47 1 48 45
48 4 49 45
49 9 50 49
50 10 51 49
51 2 52 50
52 7 53 50
53 5 54 52
54 1 55 52
55 1 56 52
56 5 57 54
57 1 58 54
58 1 59 54
59 8 60 57
60 1 61 57
61 1 62 57
62 6 63 60
63 2 64 63
64 7 65 63
65 5 66 64
66 1 67 64
67 1 68 64
68 5 69 66
69 1 70 66
70 1 71 66
71 4 72 69
72 1 73 69
73 1 74 69
74 3 75 72
75 2 76 75
76 1 77 75
77 5 78 76
78 1 79 76
79 1 80 76
80 5 81 78
81 1 82 78
82 1 83 78
83 5 84 81
84 1 85 81
85 1 86 81
86 2 87 84
87 1 88 84
88 1 89 84
89 3 90 87
90 1 91 87
91 4 92 90
92 5 93 92
93 1 94 92
94 1 95 92
95 5 96 93
96 1 97 93
97 1 98 93
98 2 99 96
99 1 100 96
100 1 101 96
101 6 102 99
102 7 103 99
103 8 104 102
104 5 105 104
105 1 106 104
106 1 107 104
107 5 108 105
108 1 109 105
109 1 110 105
110 2 111 108
111 1 112 108
112 1 113 108
113 9 114 111
114 7 115 111
115 4 116 114
116 10 117 114
117 1 118 116
118 5 119 116
119 5 120 116
120 1 121 119
121 1 122 119
122 8 123 119
123 1 124 120
124 8 125 120
125 5 126 120
126 8 127 125
127 1 128 126
128 5 129 126
129 1 130 127
130 1 131 127
131 1 132 129
132 4 133 129
133 9 134 133
134 10 135 133
135 2 136 134
136 7 137 134
137 5 138 136
138 1 139 136
139 1 140 136
140 5 141 138
141 1 142 138
142 1 143 138
143 8 144 141
144 1 145 141
145 1 146 141
146 6 147 144
147 2 148 147
148 7 149 147
149 5 150 148
150 1 151 148
151 1 152 148
152 5 153 150
153 1 154 150
154 1 155 150
155 4 156 153
156 1 157 153
157 1 158 153
158 3 159 156
159 2 160 159
160 1 161 159
161 1 162 160
162 1 163 160
163 1 164 160
164 8 42 39
165 5 45 43
166 8 126 123
167 5 129 127
168 1 166 165
169 2 167 166
170 3 168 166
171 1 169 167
172 1 170 167
173 1 171 167
174 4 172 168
175 5 173 172
176 1 174 172
177 1 175 172
178 5 176 173
179 1 177 173
180 1 178 173
181 2 179 176
182 1 180 176
183 1 181 176
184 6 182 179
185 7 183 179
186 8 184 182
187 5 185 184
188 1 186 184
189 1 187 184
190 5 188 185
191 1 189 185
192 1 190 185
193 2 191 188
194 1 192 188
195 1 193 188
196 9 194 191
197 7 195 191
198 4 196 194
199 10 197 194
200 1 198 196
201 5 199 196
202 5 200 196
203 1 201 199
204 1 202 199
205 8 203 199
206 1 204 200
207 8 205 200
208 5 206 200
209 8 207 205
210 1 208 206
211 5 209 206
212 1 210 207
213 1 211 207
214 1 212 209
215 4 213 209
216 9 214 213
217 10 215 213
218 2 216 214
219 7 217 214
220 5 218 216
221 1 219 216
222 1 220 216
223 5 221 218
224 1 222 218
225 1 223 218
226 8 224 221
227 1 225 221
228 1 226 221
229 6 227 224
230 2 228 227
231 7 229 227
232 5 230 228
233 1 231 228
234 1 232 228
235 5 233 230
236 1 234 230
237 1 235 230
238 4 236 233
239 1 237 233
240 1 238 233
241 3 239 236
242 2 240 239
243 1 241 239
244 5 242 240
245 1 243 240
246 1 244 240
247 5 245 242
248 1 246 242
249 1 247 242
250 5 248 245
251 1 249 245
252 1 250 245
253 2 251 248
254 1 252 248
255 1 253 248
256 3 254 251
257 1 255 251
258 4 256 254
259 5 257 256
260 1 258 256
261 1 259 256
262 5 260 257
263 1 261 257
264 1 262 257
265 2 263 260
266 1 264 260
267 1 265 260
268 6 266 263
269 7 267 263
270 8 268 266
271 5 269 268
272 1 270 268
273 1 271 268
274 5 272 269
275 1 273 269
276 1 274 269
277 2 275 272
278 1 276 272
279 1 277 272
280 9 278 275
281 7 279 275
282 4 280 278
283 10 281 278
284 1 282 280
285 5 283 280
286 5 284 280
287 1 285 283
288 1 286 283
289 8 287 283
290 1 288 284
291 8 289 284
292 5 290 284
293 8 291 289
294 1 292 290
295 5 293 290
296 1 294 291
297 1 295 291
298 1 296 293
299 4 297 293
300 9 298 297
301 10 299 297
302 2 300 298
303 7 301 298
304 5 302 300
305 1 303 300
306 1 304 300
307 5 305 302
308 1 306 302
309 1 307 302
310 8 308 305
311 1 309 305
312 1 310 305
313 6 311 308
314 2 312 311
315 7 313 311
316 5 314 312
317 1 315 312
318 1 316 312
319 5 317 314
320 1 318 314
321 1 319 314
322 4 320 317
323 1 321 317
324 1 322 317
325 3 323 320
326 2 324 323
327 1 325 323
328 1 326 324
329 1 327 324
330 1 328 324
331 8 206 203
332 5 209 207
333 8 290 287
334 5 293 291

Angles

1 1 1 2 3
2 2 1 2 4
3 3 2 3 5
4 3 2 3 6
5 3 2 3 7
6 4 2 4 8
7 5 4 8 9
8 3 4 8 10
9 3 4 8 11
10 6 8 9 12
11 7 8 9 13
12 7 8 9 14
13 8 9 12 15
14 7 9 12 16
15 7 9 12 17
16 9 12 15 18
17 10 12 15 19
18 11 15 18 20
19 12 18 20 21
20 3 18 20 22
21 3 18 20 23
22 6 20 21 24
23 7 20 21 25
24 7 20 21 26
25 8 21 24 27
26 7 21 24 28
27 7 21 24 29
28 13 24 27 30
29 10 24 27 31
30 14 27 30 32
31 15 27 30 33
32 3 30 32 34
33 16 30 32 35
34 16 30 32 36
35 7 32 35 37
36 7 32 35 38
37 12 32 35 39
38 7 32 36 40
39 12 32 36 41
40 6 32 36 42
41 17 36 41 43
42 7 36 42 44
43 6 36 42 45
44 3 41 43 46
45 3 41 43 47
46 7 42 45 48
47 16 42 45 49
48 14 45 49 50
49 18 45 49 51
50 13 49 50 52
51 19 49 50 53
52 8 50 52 54
53 3 50 52 55
54 3 50 52 56
55 6 52 54 57
56 7 52 54 58
57 7 52 54 59
58 12 54 57 60
59 7 54 57 61
60 7 54 57 62
61 11 57 60 63
62 9 60 63 64
63 20 60 63 65
64 8 63 64 66
65 3 63 64 67
66 3 63 64 68
67 6 64 66 69
68 7 64 66 70
69 7 64 66 71
70 5 66 69 72
71 7 66 69 73
72 7 66 69 74
73 4 69 72 75
74 21 72 75 76
75 2 72 75 77
76 8 75 76 78
77 3 75 76 79
78 3 75 76 80
79 6 76 78 81
80 7 76 78 82
81 7 76 78 83
82 6 78 81 84
83 7 78 81 85
84 7 78 81 86
85 8 81 84 87
86 7 81 84 88
87 7 81 84 89
88 21 84 87 90
89 1 84 87 91
90 4 87 90 92
91 5 90 92 93
92 3 90 92 94
93 3 90 92 95
94 6 92 93 96
95 7 92 93 97
96 7 92 93 98
97 8 93 96 99
98 7 93 96 100
99 7 93 96 101
100 9 96 99 102
101 10 96 99 103
102 11 99 102 104
103 12 102 104 105
104 3 102 104 106
105 3 102 104 107
106 6 104 105 108
107 7 104 105 109
108 7 104 105 110
109 8 105 108 111
110 7 105 108 112
111 7 105 108 113
112 13 108 111 114
113 10 108 111 115
114 14 111 114 116
115 15 111 114 117
116 3 114 116 118
117 16 114 116 119
118 16 114 116 120
119 7 116 119 121
120 7 116 119 122
121 12 116 119 123
122 7 116 120 124
123 12 116 120 125
124 6 116 120 126
125 17 120 125 127
126 7 120 126 128
127 6 120 126 129
128 3 125 127 130
129 3 125 127 131
130 7 126 129 132
131 16 126 129 133
132 14 129 133 134
133 18 129 133 135
134 13 133 134 136
135 19 133 134 137
136 8 134 136 138
137 3 134 136 139
138 3 134 136 140
139 6 136 138 141
140 7 136 138 142
141 7 136 138 143
142 12 138 141 144
143 7 138 141 145
144 7 138 141 146
145 11 141 144 147
146 9 144 147 148
147 20 144 147 149
148 8 147 148 150
149 3 147 148 151
150 3 147 148 152
151 6 148 150 153
152 7 148 150 154
153 7 148 150 155
154 5 150 153 156
155 7 150 153 157
156 7 150 153 158
157 4 153 156 159
158 21 156 159 160
159 2 156 159 161
160 3 159 160 162
161 3 159 160 163
162 3 159 160 164
163 22 13 9 14
164 7 24 21 26
165 3 38 35 39
166 22 97 93 98
167 7 138 136 139
168 3 122 119 123
169 7 12 9 13
170 22 121 119 122
171 12 125 127 129
172 22 73 69 74
173 22 94 92 95
174 3 144 141 146
175 7 54 52 55
176 22 28 24 29
177 12 120 126 123
178 7 84 81 85
179 12 41 43 45
180 3 27 24 29
181 3 27 24 28
182 2 90 87 91
183 12 36 42 39
184 22 88 84 89
185 7 34 32 36
186 12 39 42 45
187 22 162 160 163
188 3 123 126 128
189 3 87 84 88
190 15 50 49 51
191 7 93 92 94
192 7 127 129 132
193 3 144 141 145
194 19 114 111 115
195 22 70 66 71
196 7 153 150 154
197 6 119 116 120
198 7 141 138 142
199 12 125 120 126
200 3 60 57 61
201 7 57 54 58
202 20 18 15 19
203 10 148 147 149
204 22 10 8 11
205 22 112 108 113
206 22 163 160 164
207 3 15 12 16
208 7 21 20 22
209 22 130 127 131
210 16 43 45 49
211 22 109 105 110
212 3 132 129 133
213 7 43 45 48
214 3 40 36 41
215 22 25 21 26
216 1 76 75 77
217 7 108 105 110
218 3 72 69 73
219 7 45 43 46
220 22 37 35 38
221 1 160 159 161
222 22 79 76 80
223 7 34 32 35
224 7 81 78 82
225 7 84 81 86
226 7 9 8 11
227 10 136 134 137
228 19 30 27 31
229 10 52 50 53
230 7 118 116 119
231 7 124 120 126
232 22 5 3 6
233 7 108 105 109
234 7 96 93 97
235 7 69 66 71
236 22 58 54 59
237 7 44 42 45
238 7 12 9 14
239 3 121 119 123
240 6 42 45 43
241 6 126 129 127
242 22 46 43 47
243 22 154 150 155
244 7 129 127 131
245 7 9 8 10
246 22 5 3 7
247 3 99 96 101
248 7 66 64 67
249 7 21 20 23
250 7 54 52 56
251 22 162 160 164
252 17 119 123 126
253 7 81 78 83
254 6 35 32 36
255 22 55 52 56
256 12 41 36 42
257 7 24 21 25
258 7 66 64 68
259 7 150 148 151
260 3 87 84 89
261 22 61 57 62
262 17 35 39 42
263 3 156 153 157
264 22 67 64 68
265 18 32 30 33
266 22 6 3 7
267 3 37 35 39
268 22 16 12 17
269 15 134 133 135
270 7 141 138 143
271 3 60 57 62
272 22 85 81 86
273 16 127 129 133
274 7 45 43 47
275 22 142 138 143
276 3 48 45 49
277 3 99 96 100
278 7 153 150 155
279 3 39 42 44
280 22 82 78 83
281 10 64 63 65
282 7 93 92 95
283 3 111 108 112
284 7 105 104 107
285 18 116 114 117
286 22 106 104 107
287 20 102 99 103
288 7 118 116 120
289 7 40 36 42
290 3 111 108 113
291 7 57 54 59
292 7 78 76 80
293 21 3 2 4
294 22 22 20 23
295 7 129 127 130
296 7 96 93 98
297 12 123 126 129
298 3 124 120 125
299 7 138 136 140
300 22 100 96 101
301 22 151 148 152
302 7 105 104 106
303 3 72 69 74
304 22 145 141 146
305 22 157 153 158
306 7 128 126 129
307 7 150 148 152
308 7 78 76 79
309 3 156 153 158
310 7 69 66 70
311 22 139 136 140
312 3 15 12 17
313 1 165 166 167
314 2 165 166 168
315 3 166 167 169
316 3 166 167 170
317 3 166 167 171
318 4 166 168 172
319 5 168 172 173
320 3 168 172 174
321 3 168 172 175
322 6 172 173 176
323 7 172 173 177
324 7 172 173 178
325 8 173 176 179
326 7 173 176 180
327 7 173 176 181
328 9 176 179 182
329 10 176 179 183
330 11 179 182 184
331 12 182 184 185
332 3 182 184 186
333 3 182 184 187
334 6 184 185 188
335 7 184 185 189
336 7 184 185 190
337 8 185 188 191
338 7 185 188 192
339 7 185 188 193
340 13 188 191 194
341 10 188 191 195
342 14 191 194 196
343 15 191 194 197
344 3 194 196 198
345 16 194 196 199
346 16 194 196 200
347 7 196 199 201
348 7 196 199 202
349 12 196 199 203
350 7 196 200 204
351 12 196 200 205
352 6 196 200 206
353 17 200 205 207
354 7 200 206 208
355 6 200 206 209
356 3 205 207 210
357 3 205 207 211
358 7 206 209 212
359 16 206 209 213
360 14 209 213 214
361 18 209 213 215
362 13 213 214 216
363 19 213 214 217
364 8 214 216 218
365 3 214 216 219
366 3 214 216 220
367 6 216 218 221
368 7 216 218 222
369 7 216 218 223
370 12 218 221 224
371 7 218 221 225
372 7 218 221 226
373 11 221 224 227
374 9 224 227 228
375 20 224 227 229
376 8 227 228 230
377 3 227 228 231
378 3 227 228 232
379 6 228 230 233
380 7 228 230 234
381 7 228 230 235
382 5 230 233 236
383 7 230 233 237
384 7 230 233 238
385 4 233 236 239
386 21 236 239 240
387 2 236 239 241
388 8 239 240 242
389 3 239 240 243
390 3 239 240 244
391 6 240 242 245
392 7 240 242 246
393 7 240 242 247
394 6 242 245 248
395 7 242 245 249
396 7 242 245 250
397 8 245 248 251
398 7 245 248 252
399 7 245 248 253
400 21 248 251 254
401 1 248 251 255
402 4 251 254 256
403 5 254 256 257
404 3 254 256 258
405 3 254 256 259
406 6 256 257 260
407 7 256 257 261
408 7 256 257 262
409 8 257 260 263
410 7 257 260 264
411 7 257 260 265
412 9 260 263 266
413 10 260 263 267
414 11 263 266 268
415 12 266 268 269
416 3 266 268 270
417 3 266 268 271
418 6 268 269 272
419 7 268 269 273
420 7 268 269 274
421 8 269 272 275
422 7 269 272 276
423 7 269 272 277
424 13 272 275 278
425 10 272 275 279
426 14 275 278 280
427 15 275 278 281
428 3 278 280 282
429 16 278 280 283
430 16 278 280 284
431 7 280 283 285
432 7 280 283 286
433 12 280 283 287
434 7 280 284 288
435 12 280 284 289
436 6 280 284 290
437 17 284 289 291
438 7 284 290 292
439 6 284 290 293
440 3 289 291 294