#Polymer: N6I

374 atoms
380 bonds
716 angles
1028 dihedrals
228 impropers

9 atom types
11 bond types
19 angle types
31 dihedral types
2 improper types

 -50.00000   50.00000 xlo xhi
 -50.00000   50.00000 ylo yhi
 -50.00000   50.00000 zlo zhi

Masses

1 1.008
2 15.999
3 12.011
4 1.008
5 14.007
6 15.999
7 12.011
8 15.999
9 14.007

Pair Coeffs

1    0.000 0.0000000
2    0.170 3.1200000
3    0.066 3.5000000
4    0.030 2.5000000
5    0.170 3.3000000
6    0.140 2.9000000
7    0.070 3.5500000
8    0.210 2.9600000
9    0.170 3.2500000

Bond Coeffs

1 553.0000   0.9450
2 320.0000   1.4100
3 268.0000   1.5290
4 340.0000   1.0900
5 382.0000   1.4480
6 214.0000   1.3270
7 317.0000   1.5220
8 570.0000   1.2290
9 337.0000   1.4490
10 457.0000   1.3580
11 434.0000   1.0100

Angle Coeffs

1   55.000  108.500
2   50.000  109.500
3   35.000  109.500
4   58.350  112.700
5   37.500  110.700
6   56.200  109.470
7   83.000  116.900
8   81.000  111.400
9   83.000  123.400
10   63.000  111.100
11   65.000  109.000
12   70.000  120.500
13   69.900  118.180
14   35.000  122.000
15   51.800  107.200
16   60.000  109.500
17   35.000  115.000
18   80.000  120.400
19   33.000  107.800

Dihedral Coeffs

1   -0.356   -0.174    0.492    0.000
2   -1.552    0.000    0.000    0.000
3    1.300   -0.200    0.200    0.000
4    2.392   -0.674    0.550    0.000
5    1.711   -0.500    0.663    0.000
6   -1.220   -0.126    0.422    0.000
7    4.669    5.124    0.000    0.000
8    0.000    0.000   -0.553    0.000
9   -2.060   -0.313    0.315    0.000
10    0.000    0.462    0.000    0.000
11    0.000   14.000    0.000    0.000
12    0.000    0.000    0.000    0.000
13    0.416   -0.128    0.695    0.000
14    0.000    0.000    0.560    0.000
15   -1.013   -0.709    0.473    0.000
16    0.650   -0.250    0.670    0.000
17    1.173    0.189   -1.200    0.000
18    0.000    0.000    0.300    0.000
19    0.000    0.000    0.352    0.000
20    0.000    0.000    0.468    0.000
21    0.000    5.124    0.000    0.000
22    0.000    0.000    0.400    0.000
23    0.000    0.000    0.760    0.000
24    0.000    0.000    0.198    0.000
25    0.000    0.000    0.360    0.000
26    8.000    0.000    0.000    0.000
27    2.300    6.089    0.000    0.000
28    0.000    0.000   -0.100    0.000
29    0.000    0.000    0.132    0.000
30   -0.550    0.000    0.000    0.000
31   -0.190   -0.417    0.418    0.000

Improper Coeffs

1    0.000  -1   2
2   10.500  -1   2

Atoms

1 1 1  0.4075   -6.94050   24.33089   -8.81852
2 1 2 -0.5904   -6.36270   23.97547   -9.51624
3 1 3  0.0062   -7.05432   24.03279  -10.76860
4 1 3 -0.1417   -8.55551   23.92854  -10.54233
5 1 4  0.1064   -6.71587   23.19632  -11.38893
6 1 4  0.1064   -6.76678   24.95032  -11.29158
7 1 3 -0.1926   -9.03851   25.31724   -9.96392
8 1 3  0.0363   -8.89816   22.63170   -9.67314
9 1 4  0.1145   -9.03421   23.79778  -11.52284
10 1 3  0.0206   -9.27443   26.41751  -11.04348
11 1 4  0.1104   -9.95765   25.19414   -9.38308
12 1 4  0.1104   -8.29833   25.71701   -9.25912
13 1 5 -0.7912   -7.85556   21.54989   -9.63264
14 1 4  0.0833   -9.13093   22.93782   -8.64808
15 1 4  0.0833   -9.81620   22.21317  -10.10322
16 1 6 -0.3932   -9.18782   27.74968  -10.47114
17 1 4  0.1050   -8.53104   26.34324  -11.84461
18 1 4  0.1050  -10.27555   26.28248  -11.46882
19 1 7  0.4444   -9.40604   28.77807  -11.37588
20 1 3 -0.1764   -9.22713   30.14656  -10.71599
21 1 8 -0.4365   -9.70793   28.57720  -12.54146
22 1 3 -0.1690   -9.53625   31.32889  -11.65603
23 1 4  0.1266   -8.19301   30.22669  -10.36221
24 1 4  0.1266   -9.90113   30.19202   -9.85375
25 1 3 -0.0703   -9.50853   32.69124  -10.92782
26 1 4  0.1175   -8.80528   31.34141  -12.47633
27 1 4  0.1175  -10.51859   31.18297  -12.12158
28 1 9 -0.3695   -9.95225   33.77141  -11.82791
29 1 4  0.0905   -8.48292   32.85342  -10.56298
30 1 4  0.0905  -10.15303   32.63619  -10.04102
31 1 7  0.0135   -9.70448   34.99020  -11.30375
32 1 3 -0.2208   -9.86585   36.19321  -12.17652
33 1 4  0.1341   -9.27887   35.17065  -10.31855
34 1 4  0.1065  -10.01042   35.94113  -13.23180
35 1 4  0.1065  -10.71706   36.79424  -11.84138
36 1 4  0.1065   -8.97032   36.82253  -12.10732
37 1 3  0.0538   -8.28196   20.21464   -9.10571
38 1 1  0.3788   -7.05600   21.89893   -9.09692
39 1 4  0.1060   -8.95611   20.38628   -8.25816
40 1 3  0.0053   -8.97756   19.43554  -10.22213
41 1 3  0.0457   -7.19894   19.16369   -8.64437
42 1 4  0.1121   -8.57829   19.70197  -11.20841
43 1 4  0.1121  -10.05401   19.63093  -10.23014
44 1 6 -0.3834   -8.75083   18.02854  -10.03454
45 1 4  0.1398   -6.17708   19.52919   -8.80079
46 1 6 -0.3809   -7.32939   18.86132   -7.24088
47 1 3  0.0463   -7.47018   17.84976   -9.38788
48 1 3  0.0082   -7.59552   17.45683   -7.03664
49 1 4  0.1344   -6.72497   17.66630  -10.17019
50 1 3  0.0653   -7.59128   16.67482   -8.35588
51 1 4  0.1099   -6.87232   17.07381   -6.31179
52 1 4  0.1099   -8.58813   17.38720   -6.57703
53 1 4  0.1081   -8.58171   16.22644   -8.49911
54 1 5 -0.8031   -6.64013   15.48954   -8.45588
55 1 3  0.0454   -6.95079   14.26498   -7.59860
56 1 1  0.3798   -6.60876   15.21419   -9.43754
57 1 3 -0.1037   -6.35005   12.82815   -8.08953
58 1 4  0.0889   -6.58468   14.46962   -6.58649
59 1 4  0.0889   -8.03869   14.14848   -7.54948
60 1 3 -0.1493   -6.36309   11.54306   -7.04154
61 1 3  0.0096   -4.93016   13.02359   -8.58598
62 1 4  0.1085   -6.98052   12.51947   -8.93369
63 1 3  0.0295   -5.47529   10.21625   -7.41238
64 1 4  0.0924   -6.01117   11.90207   -6.06529
65 1 4  0.0924   -7.40330   11.23198   -6.89726
66 1 2 -0.5994   -4.73257   12.40688   -9.84990
67 1 4  0.0818   -4.28100   12.51405   -7.88933
68 1 4  0.0818   -4.60287   14.06356   -8.65736
69 1 6 -0.4103   -5.66070    8.96553   -6.57725
70 1 4  0.1164   -4.41472   10.47602   -7.32500
71 1 4  0.1164   -5.69928    9.93523   -8.44580
72 1 1  0.4148   -5.24767   12.91953  -10.49881
73 1 7  0.4359   -4.79740    7.86934   -6.83039
74 1 3 -0.1526   -5.13720    6.52892   -6.02524
75 1 8 -0.4446   -3.90517    7.92521   -7.67029
76 1 3 -0.1622   -4.06655    5.29678   -5.97518
77 1 4  0.1191   -5.34286    6.82117   -4.98937
78 1 4  0.1191   -6.05979    6.14188   -6.47113
79 1 3 -0.0217   -4.64715    3.82661   -5.63507
80 1 4  0.1135   -3.55610    5.24248   -6.94430
81 1 4  0.1135   -3.29796    5.55622   -5.23629
82 1 9 -0.4510   -3.65817    2.74392   -5.13646
83 1 4  0.0905   -5.16601    3.45236   -6.52347
84 1 4  0.0905   -5.37693    3.95459   -4.82791
85 1 7  0.0632   -4.04745    1.48341   -5.18702
86 1 3 -0.1305   -3.32512    0.24088   -4.42029
87 1 4  0.1099   -5.01427    1.22946   -5.65698
88 1 3 -0.1622   -3.34569   -1.28992   -4.96034
89 1 4  0.1073   -2.28745    0.52999   -4.22612
90 1 4  0.1073   -3.84306    0.21079   -3.45208
91 1 3 -0.1651   -2.83913   -2.47770   -3.93336
92 1 4  0.0899   -2.73702   -1.33532   -5.86993
93 1 4  0.0899   -4.37632   -1.52714   -5.25578
94 1 3 -0.1257   -2.51298   -3.96827   -4.49767
95 1 4  0.0887   -1.93394   -2.11342   -3.43626
96 1 4  0.0887   -3.61034   -2.57823   -3.15963
97 1 7  0.0576   -2.33043   -5.26900   -3.50915
98 1 4  0.1067   -3.36073   -4.23840   -5.14165
99 1 4  0.1067   -1.62336   -3.91352   -5.13393
100 1 9 -0.4492   -1.55483   -6.31528   -3.73813
101 1 4  0.1091   -3.02838   -5.28115   -2.65193
102 1 3 -0.0246   -1.68219   -7.55614   -2.79539
103 1 3 -0.1574   -0.55966   -8.75209   -2.95460
104 1 4  0.0921   -1.65843   -7.20048   -1.75924
105 1 4  0.0921   -2.66280   -8.00037   -2.99867
106 1 3 -0.1663   -0.84073  -10.22191   -2.22859
107 1 4  0.0967    0.38696   -8.36048   -2.56287
108 1 4  0.0967   -0.41786   -8.93549   -4.02561
109 1 3 -0.1344    0.29755  -11.43670   -2.20767
110 1 4  0.0964   -1.73779  -10.63689   -2.70214
111 1 4  0.0964   -1.09898  -10.01493   -1.18295
112 1 7  0.4308   -0.11393  -12.94358   -1.67698
113 1 4  0.1192    0.66575  -11.55406   -3.23192
114 1 4  0.1192    1.11769  -11.09058   -1.56742
115 1 6 -0.4279    0.90926  -13.92709   -1.67575
116 1 8 -0.4467   -1.25411  -13.21034   -1.30902
117 1 3  0.0463    0.64979  -15.44489   -1.24943
118 1 3 -0.1490    1.99122  -16.33821   -1.22562
119 1 4  0.1132   -0.07602  -15.83055   -1.96570
120 1 4  0.1132    0.23599  -15.38572   -0.23779
121 1 3 -0.1482    2.45873  -18.00247   -1.26491
122 1 4  0.0918    2.49029  -15.97476   -2.14126
123 1 4  0.0918    2.58572  -15.87038   -0.42839
124 1 3  0.0016    3.87151  -17.95914   -0.69578
125 1 3  0.1089    1.98212  -19.55839   -0.80744
126 1 4  0.0980    2.56781  -18.13368   -2.35233
127 1 2 -0.5873    4.70580  -17.04710   -1.39914
128 1 4  0.1019    3.73093  -17.62779    0.33845
129 1 4  0.1019    4.39546  -18.91978   -0.66393
130 1 5 -0.9292    2.36914  -20.32341    0.44802
131 1 4  0.0863    2.51951  -20.15111   -1.56669
132 1 4  0.0863    0.92018  -19.68129   -1.02509
133 1 1  0.4093    5.14039  -17.55500   -2.11031
134 1 3  0.1025    2.25381  -21.86856    0.57864
135 1 1  0.4257    3.21474  -20.00109    0.91278
136 1 4  0.1157    1.63759  -21.95524    1.48570
137 1 3  0.0157    3.48312  -22.85786    0.88865
138 1 3  0.0124    1.55236  -22.69766   -0.49731
139 1 4  0.1378    4.41896  -22.44961    0.49347
140 1 6 -0.3651    3.63257  -23.09892    2.29650
141 1 3  0.0527    3.17688  -24.24185    0.26131
142 1 4  0.1120    0.46950  -22.54793   -0.47328
143 1 4  0.1120    1.92863  -22.47524   -1.49896
144 1 6 -0.3890    1.81753  -24.10286   -0.22659
145 1 3 -0.0197    3.37257  -24.48871    2.61494
146 1 4  0.1357    3.81411  -24.45181   -0.60465
147 1 3  0.0871    3.29481  -25.38742    1.34772
148 1 4  0.1116    4.13379  -24.81934    3.32915
149 1 4  0.1116    2.41641  -24.52091    3.14864
150 1 4  0.1060    2.35836  -25.95319    1.39457
151 1 5 -0.8194    4.42706  -26.41971    1.32557
152 1 3  0.0476    4.16958  -27.89129    0.97002
153 1 1  0.3964    4.88801  -26.42337    2.24605
154 1 3 -0.1633    4.48205  -28.99622    2.13578
155 1 4  0.0983    3.13927  -28.00699    0.61248
156 1 4  0.0983    4.82733  -28.10290    0.11868
157 1 3 -0.1674    4.98610  -30.50502    1.89936
158 1 3  0.0002    3.25629  -29.11784    3.04204
159 1 4  0.1112    5.32807  -28.55434    2.66318
160 1 3  0.0172    4.89262  -31.43336    3.28458
161 1 4  0.1033    4.40439  -30.93733    1.06939
162 1 4  0.1033    6.01974  -30.50240    1.52628
163 1 2 -0.5855    2.92957  -27.86194    3.58997
164 1 4  0.1008    2.40447  -29.58152    2.52630
165 1 4  0.1008    3.45198  -29.73310    3.91443
166 1 6 -0.3951    5.66704  -32.64966    3.41514
167 1 4  0.1039    3.83968  -31.64982    3.48966
168 1 4  0.1039    5.20258  -30.88381    4.16916
169 1 1  0.4034    2.32091  -27.45219    2.95774
170 1 7  0.4428    5.18398  -33.54612    4.37457
171 1 3 -0.1694    6.15838  -34.68468    4.64067
172 1 8 -0.4414    4.09736  -33.39436    4.95878
173 1 3 -0.1669    5.52141  -35.98418    5.18466
174 1 4  0.1256    6.65105  -34.90884    3.69076
175 1 4  0.1256    6.91103  -34.32064    5.34719
176 1 3 -0.0701    6.57186  -37.06777    5.52693
177 1 4  0.1173    4.82045  -36.37832    4.43927
178 1 4  0.1173    4.92845  -35.76694    6.08322
179 1 9 -0.3697    5.92659  -38.34303    5.91096
180 1 4  0.0901    7.23039  -37.21326    4.66024
181 1 4  0.0901    7.20420  -36.67006    6.33264
182 1 7  0.0141    6.83374  -39.22268    6.39609
183 1 3 -0.2185    6.36850  -40.52577    6.96525
184 1 4  0.1345    7.89652  -39.01200    6.52677
185 1 4  0.1060    7.18295  -41.26078    6.93137
186 1 4  0.1060    5.52672  -40.94562    6.40751
187 1 4  0.1060    6.08084  -40.41556    8.01666
188 1 1  0.4075   -5.13322   22.70716   -9.81149
189 1 2 -0.5904   -4.46031   22.38306  -10.45185
190 1 3  0.0062   -3.78310   23.56840  -10.86523
191 1 3 -0.1417   -3.29793   24.40112   -9.65319
192 1 4  0.1064   -4.47148   24.13849  -11.49530
193 1 4  0.1064   -2.94171   23.26094  -11.49118
194 1 3 -0.1926   -2.86246   25.81817  -10.21168
195 1 3  0.0363   -2.20085   23.56398   -8.85328
196 1 4  0.1145   -4.12589   24.55476   -8.95156
197 1 3  0.0206   -3.56001   27.08577   -9.62873
198 1 4  0.1104   -1.77778   25.94051  -10.13698
199 1 4  0.1104   -3.07308   25.85240  -11.29083
200 1 5 -0.7912   -2.56954   22.12989   -8.61859
201 1 4  0.0833   -1.25934   23.61482   -9.40921
202 1 4  0.0833   -2.05310   24.05156   -7.88253
203 1 6 -0.3932   -3.29598   28.24555  -10.48852
204 1 4  0.1050   -4.64553   26.94142   -9.58080
205 1 4  0.1050   -3.16765   27.29642   -8.62848
206 1 7  0.4444   -3.83692   29.45627  -10.08914
207 1 3 -0.1764   -3.50932   30.57739  -11.08563
208 1 8 -0.4365   -4.47373   29.58048   -9.04012
209 1 3 -0.1690   -4.10956   31.96559  -10.76013
210 1 4  0.1266   -3.86672   30.26631  -12.07400
211 1 4  0.1266   -2.41815   30.67123  -11.12038
212 1 3 -0.0703   -3.62514   33.07729  -11.73475
213 1 4  0.1175   -5.20625   31.90588  -10.79720
214 1 4  0.1175   -3.85350   32.24622   -9.73089
215 1 9 -0.3695   -4.12156   34.39533  -11.30944
216 1 4  0.0905   -3.97513   32.81663  -12.74396
217 1 4  0.0905   -2.52852   33.07097  -11.76554
218 1 7  0.0135   -3.93321   35.36513  -12.22873
219 1 3 -0.2208   -4.59951   36.69033  -12.00071
220 1 4  0.1341   -3.40744   35.24612  -13.17110
221 1 4  0.1065   -5.31924   36.67617  -11.17517
222 1 4  0.1065   -3.85232   37.46346  -11.79260
223 1 4  0.1065   -5.14307   36.99507  -12.90336
224 1 3  0.0538   -1.55876   21.22753   -7.99628
225 1 1  0.3788   -2.88560   21.73857   -9.51521
226 1 4  0.1060   -0.55401   21.57220   -8.27030
227 1 3  0.0053   -1.73414   21.21553   -6.47488
228 1 3  0.0457   -1.65498   19.68648   -8.31642
229 1 4  0.1121   -2.77209   21.42474   -6.18598
230 1 4  0.1121   -1.09674   21.96084   -5.98797
231 1 6 -0.3834   -1.40252   19.89950   -5.98191
232 1 4  0.1398   -2.46952   19.45512   -9.01017
233 1 6 -0.3809   -0.43724   19.20770   -8.92214
234 1 3  0.0463   -1.79427   18.93553   -6.99168
235 1 3  0.0082    0.15153   18.16783   -8.11191
236 1 4  0.1344   -2.82936   18.64669   -6.78185
237 1 3  0.0653   -0.80205   17.72132   -6.99118
238 1 4  0.1099    0.45781   17.35043   -8.76895
239 1 4  0.1099    1.06336   18.59061   -7.67213
240 1 4  0.1081   -0.25792   17.73398   -6.03744
241 1 5 -0.8031   -1.35611   16.29832   -7.11350
242 1 3  0.0454   -0.34044   15.18459   -6.88320
243 1 1  0.3798   -2.08997   16.20656   -6.41056
244 1 3 -0.1037   -0.83092   13.64712   -6.70055
245 1 4  0.0889    0.41249   15.22769   -7.67658
246 1 4  0.0889    0.15825   15.42581   -5.93752
247 1 3 -0.1493    0.29359   12.56705   -6.18671
248 1 3  0.0096   -1.69622   13.06269   -7.83670
249 1 4  0.1085   -1.51587   13.69769   -5.84328
250 1 3  0.0295   -0.20441   11.17962   -5.49660
251 1 4  0.0924    0.96745   12.32731   -7.01724
252 1 4  0.0924    0.89768   13.08940   -5.43650
253 1 2 -0.5994   -1.65405   13.63922   -9.12843
254 1 4  0.0818   -2.69718   13.24565   -7.47399
255 1 4  0.0818   -1.57254   11.98290   -7.95927
256 1 6 -0.4103    0.84820   10.15338   -5.09021
257 1 4  0.1164   -0.89840   10.66927   -6.17044
258 1 4  0.1164   -0.72944   11.45184   -4.57342
259 1 1  0.4148   -2.41284   13.25323   -9.62208
260 1 7  0.4359    0.39769    8.91957   -4.56195
261 1 3 -0.1526    1.52586    7.88455   -4.05686
262 1 8 -0.4446   -0.79932    8.68644   -4.41483
263 1 3 -0.1622    1.15116    6.29255   -3.98726
264 1 4  0.1191    2.39845    7.99546   -4.70991
265 1 4  0.1191    1.80887    8.20883   -3.04764
266 1 3 -0.0217    2.04439    5.27136   -3.09449
267 1 4  0.1135    0.11919    6.21087   -3.62617
268 1 4  0.1135    1.14923    5.92413   -5.01915
269 1 9 -0.4510    1.91801    3.76971   -3.45471
270 1 4  0.0905    1.78464    5.40797   -2.03819
271 1 4  0.0905    3.09816    5.53931   -3.23247
272 1 7  0.0632    2.34584    2.85438   -2.60940
273 1 3 -0.1305    2.52433    1.26999   -2.96233
274 1 4  0.1099    2.75071    3.15277   -1.62538
275 1 3 -0.1622    2.37102    0.08186   -1.86614
276 1 4  0.1073    1.86046    1.05154   -3.80623
277 1 4  0.1073    3.55543    1.20170   -3.33241
278 1 3 -0.1651    3.02028   -1.39578   -2.20205
279 1 4  0.0899    1.29903   -0.05908   -1.68419
280 1 4  0.0899    2.81205    0.42944   -0.92458
281 1 3 -0.1257    2.66260   -2.66419   -1.24950
282 1 4  0.0887    2.72344   -1.66159   -3.22325
283 1 4  0.0887    4.11005   -1.27647   -2.20714
284 1 7  0.0576    3.55092   -4.03851   -1.23146
285 1 4  0.1067    2.72979   -2.29230   -0.21889
286 1 4  0.1067    1.62014   -2.95152   -1.42575
287 1 9 -0.4492    3.09599   -5.24697   -0.94955
288 1 4  0.1091    4.63788   -3.87467   -1.34684
289 1 3 -0.0246    4.12936   -6.39272   -0.74780
290 1 3 -0.1574    3.54581   -7.91820   -0.60645
291 1 4  0.0921    4.83426   -6.37307   -1.58660
292 1 4  0.0921    4.67065   -6.16536    0.17715
293 1 3 -0.1663    4.56876   -9.08372   -0.04773
294 1 4  0.0967    3.18755   -8.22558   -1.59665
295 1 4  0.0967    2.67537   -7.88866    0.05844
296 1 3 -0.1344    4.14657  -10.68073    0.02730
297 1 4  0.0964    4.85401   -8.78621    0.96771
298 1 4  0.0964    5.47703   -9.02948   -0.66029
299 1 7  0.4308    5.16735  -11.70409    0.78463
300 1 4  0.1192    3.17584  -10.74920    0.52842
301 1 4  0.1192    4.04539  -11.03701   -1.00493
302 1 6 -0.4279    4.79121  -13.07076    0.86096
303 1 8 -0.4467    6.22385  -11.30402    1.26727
304 1 3  0.0463    5.77587  -14.10206    1.49641
305 1 3 -0.1490    5.25276  -15.65478    1.66770
306 1 4  0.1132    5.97710  -13.71587    2.50189
307 1 4  0.1132    6.68295  -14.05613    0.89325
308 1 3 -0.1482    6.17661  -17.07789    1.47241
309 1 4  0.0918    4.71812  -15.74182    2.62060
310 1 4  0.0918    4.47286  -15.71464    0.90232
311 1 3  0.0016    7.36249  -16.93928    0.51244
312 1 3  0.1089    6.15290  -18.42356    2.51008
313 1 4  0.0980    5.51803  -17.56706    0.77994
314 1 2 -0.5873    7.02325  -16.04587   -0.55524
315 1 4  0.1019    8.27132  -16.57065    0.98611
316 1 4  0.1019    7.58130  -17.90486    0.03906
317 1 5 -0.9292    6.91848  -19.66852    2.11825
318 1 4  0.0863    5.09794  -18.73976    2.52488
319 1 4  0.0863    6.40943  -18.10633    3.52229
320 1 1  0.4093    6.08604  -16.21480   -0.80530
321 1 3  0.1025    7.25616  -20.86777    3.00959
322 1 1  0.4257    6.73504  -19.98328    1.16752
323 1 4  0.1157    8.35094  -20.89689    2.90926
324 1 3  0.0157    6.83833  -22.36882    2.65874
325 1 3  0.0124    6.98200  -20.89574    4.51197
326 1 4  0.1378    5.86506  -22.38598    2.18170
327 1 6 -0.3651    7.77005  -23.01856    1.78436
328 1 3  0.0527    6.82742  -23.18086    3.97652
329 1 4  0.1120    7.61725  -20.19197    5.05549
330 1 4  0.1120    5.93135  -20.70548    4.75019
331 1 6 -0.3890    7.31751  -22.24155    4.96613
332 1 3 -0.0197    8.47444  -24.05407    2.50538
333 1 4  0.1357    5.81892  -23.46884    4.28844
334 1 3  0.0871    7.73652  -24.45097    3.82414
335 1 4  0.1116    8.61738  -24.89415    1.81599
336 1 4  0.1116    9.47625  -23.67067    2.73141
337 1 4  0.1060    8.48103  -24.52019    4.62597
338 1 5 -0.8194    7.06452  -25.83237    3.68952
339 1 3  0.0476    7.41569  -26.91792    4.72082
340 1 1  0.3964    7.54059  -26.22417    2.85213
341 1 3 -0.1633    7.19755  -28.25712    5.72266
342 1 4  0.0983    7.00785  -27.57733    3.94906
343 1 4  0.0983    8.49387  -26.86199    4.71527
344 1 3 -0.1674    8.42482  -29.28161    5.48394
345 1 3  0.0002    5.84774  -28.91975    5.53170
346 1 4  0.1112    7.23524  -27.90192    6.75083
347 1 3  0.0172    8.98426  -30.50479    6.34699
348 1 4  0.1033    8.47180  -29.55153    4.41825
349 1 4  0.1033    9.26961  -28.59041    5.62610
350 1 2 -0.5855    4.80107  -27.97505    5.67523
351 1 4  0.1008    5.83724  -29.28888    4.51836
352 1 4  0.1008    5.67792  -29.74730    6.23064
353 1 6 -0.3951    8.40328  -31.81865    6.58536
354 1 4  0.1039    9.30944  -30.09039    7.30484
355 1 4  0.1039    9.89368  -30.76480    5.77936
356 1 1  0.4034    4.30085  -27.92474    4.83303
357 1 7  0.4428    9.27722  -32.63191    7.36294
358 1 3 -0.1694    8.93362  -34.13906    7.38700
359 1 8 -0.4414   10.28846  -32.17121    7.89209
360 1 3 -0.1669    9.72966  -35.00795    8.42306
361 1 4  0.1256    7.86631  -34.25301    7.59252
362 1 4  0.1256    9.15749  -34.52651    6.38706
363 1 3 -0.0701    9.51834  -36.54079    8.24896
364 1 4  0.1173    9.43296  -34.72125    9.44033
365 1 4  0.1173   10.80461  -34.79880    8.34736
366 1 9 -0.3697   10.25280  -37.33441    9.27215
367 1 4  0.0901    8.43948  -36.74425    8.29860
368 1 4  0.0901    9.84513  -36.81566    7.23563
369 1 7  0.0141   10.09105  -38.66408    9.06423
370 1 3 -0.2185   10.72829  -39.64157    9.99776
371 1 4  0.1345    9.52678  -39.09938    8.23867
372 1 4  0.1060   10.24498  -40.62296    9.90186
373 1 4  0.1060   10.63658  -39.33771   11.04465
374 1 4  0.1060   11.78601  -39.77874    9.75259

Bonds

1 1 2 1
2 2 3 2
3 3 4 3
4 4 5 3
5 4 6 3
6 3 7 4
7 3 8 4
8 4 9 4
9 3 10 7
10 4 11 7
11 4 12 7
12 5 13 8
13 4 14 8
14 4 15 8
15 2 16 10
16 4 17 10
17 4 18 10
18 6 19 16
19 7 20 19
20 8 21 19
21 3 22 20
22 4 23 20
23 4 24 20
24 3 25 22
25 4 26 22
26 4 27 22
27 9 28 25
28 4 29 25
29 4 30 25
30 10 31 28
31 7 32 31
32 4 33 31
33 4 34 32
34 4 35 32
35 4 36 32
36 5 37 13
37 11 38 13
38 4 39 37
39 3 40 37
40 3 41 37
41 4 42 40
42 4 43 40
43 2 44 40
44 4 45 41
45 2 46 41
46 3 47 41
47 2 48 46
48 4 49 47
49 3 50 47
50 4 51 48
51 4 52 48
52 4 53 50
53 5 54 50
54 5 55 54
55 11 56 54
56 3 57 55
57 4 58 55
58 4 59 55
59 3 60 57
60 3 61 57
61 4 62 57
62 3 63 60
63 4 64 60
64 4 65 60
65 2 66 61
66 4 67 61
67 4 68 61
68 2 69 63
69 4 70 63
70 4 71 63
71 1 72 66
72 6 73 69
73 7 74 73
74 8 75 73
75 3 76 74
76 4 77 74
77 4 78 74
78 3 79 76
79 4 80 76
80 4 81 76
81 9 82 79
82 4 83 79
83 4 84 79
84 10 85 82
85 7 86 85
86 4 87 85
87 3 88 86
88 4 89 86
89 4 90 86
90 3 91 88
91 4 92 88
92 4 93 88
93 3 94 91
94 4 95 91
95 4 96 91
96 7 97 94
97 4 98 94
98 4 99 94
99 10 100 97
100 4 101 97
101 9 102 100
102 3 103 102
103 4 104 102
104 4 105 102
105 3 106 103
106 4 107 103
107 4 108 103
108 3 109 106
109 4 110 106
110 4 111 106
111 7 112 109
112 4 113 109
113 4 114 109
114 6 115 112
115 8 116 112
116 2 117 115
117 3 118 117
118 4 119 117
119 4 120 117
120 3 121 118
121 4 122 118
122 4 123 118
123 3 124 121
124 3 125 121
125 4 126 121
126 2 127 124
127 4 128 124
128 4 129 124
129 5 130 125
130 4 131 125
131 4 132 125
132 1 133 127
133 5 134 130
134 11 135 130
135 4 136 134
136 3 137 134
137 3 138 134
138 4 139 137
139 2 140 137
140 3 141 137
141 4 142 138
142 4 143 138
143 2 144 138
144 2 145 140
145 4 146 141
146 3 147 141
147 4 148 145
148 4 149 145
149 4 150 147
150 5 151 147
151 5 152 151
152 11 153 151
153 3 154 152
154 4 155 152
155 4 156 152
156 3 157 154
157 3 158 154
158 4 159 154
159 3 160 157
160 4 161 157
161 4 162 157
162 2 163 158
163 4 164 158
164 4 165 158
165 2 166 160
166 4 167 160
167 4 168 160
168 1 169 163
169 6 170 166
170 7 171 170
171 8 172 170
172 3 173 171
173 4 174 171
174 4 175 171
175 3 176 173
176 4 177 173
177 4 178 173
178 9 179 176
179 4 180 176
180 4 181 176
181 10 182 179
182 7 183 182
183 4 184 182
184 4 185 183
185 4 186 183
186 4 187 183
187 2 47 44
188 3 50 48
189 2 144 141
190 3 147 145
191 1 189 188
192 2 190 189
193 3 191 190
194 4 192 190
195 4 193 190
196 3 194 191
197 3 195 191
198 4 196 191
199 3 197 194
200 4 198 194
201 4 199 194
202 5 200 195
203 4 201 195
204 4 202 195
205 2 203 197
206 4 204 197
207 4 205 197
208 6 206 203
209 7 207 206
210 8 208 206
211 3 209 207
212 4 210 207
213 4 211 207
214 3 212 209
215 4 213 209
216 4 214 209
217 9 215 212
218 4 216 212
219 4 217 212
220 10 218 215
221 7 219 218
222 4 220 218
223 4 221 219
224 4 222 219
225 4 223 219
226 5 224 200
227 11 225 200
228 4 226 224
229 3 227 224
230 3 228 224
231 4 229 227
232 4 230 227
233 2 231 227
234 4 232 228
235 2 233 228
236 3 234 228
237 2 235 233
238 4 236 234
239 3 237 234
240 4 238 235
241 4 239 235
242 4 240 237
243 5 241 237
244 5 242 241
245 11 243 241
246 3 244 242
247 4 245 242
248 4 246 242
249 3 247 244
250 3 248 244
251 4 249 244
252 3 250 247
253 4 251 247
254 4 252 247
255 2 253 248
256 4 254 248
257 4 255 248
258 2 256 250
259 4 257 250
260 4 258 250
261 1 259 253
262 6 260 256
263 7 261 260
264 8 262 260
265 3 263 261
266 4 264 261
267 4 265 261
268 3 266 263
269 4 267 263
270 4 268 263
271 9 269 266
272 4 270 266
273 4 271 266
274 10 272 269
275 7 273 272
276 4 274 272
277 3 275 273
278 4 276 273
279 4 277 273
280 3 278 275
281 4 279 275
282 4 280 275
283 3 281 278
284 4 282 278
285 4 283 278
286 7 284 281
287 4 285 281
288 4 286 281
289 10 287 284
290 4 288 284
291 9 289 287
292 3 290 289
293 4 291 289
294 4 292 289
295 3 293 290
296 4 294 290
297 4 295 290
298 3 296 293
299 4 297 293
300 4 298 293
301 7 299 296
302 4 300 296
303 4 301 296
304 6 302 299
305 8 303 299
306 2 304 302
307 3 305 304
308 4 306 304
309 4 307 304
310 3 308 305
311 4 309 305
312 4 310 305
313 3 311 308
314 3 312 308
315 4 313 308
316 2 314 311
317 4 315 311
318 4 316 311
319 5 317 312
320 4 318 312
321 4 319 312
322 1 320 314
323 5 321 317
324 11 322 317
325 4 323 321
326 3 324 321
327 3 325 321
328 4 326 324
329 2 327 324
330 3 328 324
331 4 329 325
332 4 330 325
333 2 331 325
334 2 332 327
335 4 333 328
336 3 334 328
337 4 335 332
338 4 336 332
339 4 337 334
340 5 338 334
341 5 339 338
342 11 340 338
343 3 341 339
344 4 342 339
345 4 343 339
346 3 344 341
347 3 345 341
348 4 346 341
349 3 347 344
350 4 348 344
351 4 349 344
352 2 350 345
353 4 351 345
354 4 352 345
355 2 353 347
356 4 354 347
357 4 355 347
358 1 356 350
359 6 357 353
360 7 358 357
361 8 359 357
362 3 360 358
363 4 361 358
364 4 362 358
365 3 363 360
366 4 364 360
367 4 365 360
368 9 366 363
369 4 367 363
370 4 368 363
371 10 369 366
372 7 370 369
373 4 371 369
374 4 372 370
375 4 373 370
376 4 374 370
377 2 234 231
378 3 237 235
379 2 331 328
380 3 334 332

Angles

1 1 1 2 3
2 2 2 3 4
3 3 2 3 5
4 3 2 3 6
5 4 3 4 7
6 4 3 4 8
7 5 3 4 9
8 4 4 7 10
9 5 4 7 11
10 5 4 7 12
11 6 4 8 13
12 5 4 8 14
13 5 4 8 15
14 2 7 10 16
15 5 7 10 17
16 5 7 10 18
17 7 10 16 19
18 8 16 19 20
19 9 16 19 21
20 10 19 20 22
21 3 19 20 23
22 3 19 20 24
23 4 20 22 25
24 5 20 22 26
25 5 20 22 27
26 11 22 25 28
27 5 22 25 29
28 5 22 25 30
29 12 25 28 31
30 13 28 31 32
31 14 28 31 33
32 3 31 32 34
33 3 31 32 35
34 3 31 32 36
35 15 8 13 37
36 3 8 13 38
37 3 13 37 39
38 6 13 37 40
39 6 13 37 41
40 5 37 40 42
41 5 37 40 43
42 2 37 40 44
43 5 37 41 45
44 2 37 41 46
45 4 37 41 47
46 16 41 46 48
47 5 41 47 49
48 4 41 47 50
49 3 46 48 51
50 3 46 48 52
51 5 47 50 53
52 6 47 50 54
53 15 50 54 55
54 3 50 54 56
55 6 54 55 57
56 3 54 55 58
57 3 54 55 59
58 4 55 57 60
59 4 55 57 61
60 5 55 57 62
61 4 57 60 63
62 5 57 60 64
63 5 57 60 65
64 2 57 61 66
65 5 57 61 67
66 5 57 61 68
67 2 60 63 69
68 5 60 63 70
69 5 60 63 71
70 1 61 66 72
71 7 63 69 73
72 8 69 73 74
73 9 69 73 75
74 10 73 74 76
75 3 73 74 77
76 3 73 74 78
77 4 74 76 79
78 5 74 76 80
79 5 74 76 81
80 11 76 79 82
81 5 76 79 83
82 5 76 79 84
83 12 79 82 85
84 13 82 85 86
85 14 82 85 87
86 10 85 86 88
87 3 85 86 89
88 3 85 86 90
89 4 86 88 91
90 5 86 88 92
91 5 86 88 93
92 4 88 91 94
93 5 88 91 95
94 5 88 91 96
95 10 91 94 97
96 5 91 94 98
97 5 91 94 99
98 13 94 97 100
99 17 94 97 101
100 12 97 100 102
101 11 100 102 103
102 3 100 102 104
103 3 100 102 105
104 4 102 103 106
105 5 102 103 107
106 5 102 103 108
107 4 103 106 109
108 5 103 106 110
109 5 103 106 111
110 10 106 109 112
111 5 106 109 113
112 5 106 109 114
113 8 109 112 115
114 18 109 112 116
115 7 112 115 117
116 2 115 117 118
117 3 115 117 119
118 3 115 117 120
119 4 117 118 121
120 5 117 118 122
121 5 117 118 123
122 4 118 121 124
123 4 118 121 125
124 5 118 121 126
125 2 121 124 127
126 5 121 124 128
127 5 121 124 129
128 6 121 125 130
129 5 121 125 131
130 5 121 125 132
131 1 124 127 133
132 15 125 130 134
133 3 125 130 135
134 3 130 134 136
135 6 130 134 137
136 6 130 134 138
137 5 134 137 139
138 2 134 137 140
139 4 134 137 141
140 5 134 138 142
141 5 134 138 143
142 2 134 138 144
143 16 137 140 145
144 5 137 141 146
145 4 137 141 147
146 3 140 145 148
147 3 140 145 149
148 5 141 147 150
149 6 141 147 151
150 15 147 151 152
151 3 147 151 153
152 6 151 152 154
153 3 151 152 155
154 3 151 152 156
155 4 152 154 157
156 4 152 154 158
157 5 152 154 159
158 4 154 157 160
159 5 154 157 161
160 5 154 157 162
161 2 154 158 163
162 5 154 158 164
163 5 154 158 165
164 2 157 160 166
165 5 157 160 167
166 5 157 160 168
167 1 158 163 169
168 7 160 166 170
169 8 166 170 171
170 9 166 170 172
171 10 170 171 173
172 3 170 171 174
173 3 170 171 175
174 4 171 173 176
175 5 171 173 177
176 5 171 173 178
177 11 173 176 179
178 5 173 176 180
179 5 173 176 181
180 12 176 179 182
181 13 179 182 183
182 14 179 182 184
183 3 182 183 185
184 3 182 183 186
185 3 182 183 187
186 19 17 10 18
187 3 13 8 14
188 19 23 20 24
189 19 98 94 99
190 5 147 145 149
191 16 40 44 47
192 5 103 102 105
193 5 173 171 175
194 9 115 112 116
195 2 41 47 44
196 3 66 61 68
197 17 32 31 33
198 5 91 88 93
199 2 137 141 144
200 5 121 118 122
201 19 95 91 96
202 5 136 134 137
203 19 5 3 6
204 5 176 173 178
205 3 127 124 128
206 5 109 106 111
207 19 34 32 36
208 5 147 145 148
209 3 16 10 17
210 3 130 125 132
211 19 167 160 168
212 5 158 154 159
213 3 13 8 15
214 5 154 152 155
215 3 16 10 18
216 19 83 79 84
217 3 43 40 44
218 4 137 134 138
219 5 25 22 26
220 5 146 141 147
221 3 152 151 153
222 5 94 91 96
223 19 11 7 12
224 4 141 147 145
225 5 76 74 78
226 19 128 124 129
227 3 163 158 165
228 3 97 94 99
229 3 139 137 140
230 3 53 50 54
231 5 57 55 58
232 5 176 173 177
233 5 145 147 150
234 18 20 19 21
235 2 46 48 50
236 19 113 109 114
237 5 94 91 95
238 19 70 63 71
239 5 160 157 161
240 5 139 137 141
241 5 10 7 12
242 5 160 157 162
243 19 14 8 15
244 19 161 157 162
245 19 180 176 181
246 5 91 88 92
247 5 25 22 27
248 2 140 137 141
249 3 82 79 83
250 4 157 154 158
251 18 74 73 75
252 19 174 171 175
253 5 4 3 5
254 16 138 144 141
255 3 112 109 113
256 3 44 47 49
257 19 34 32 35
258 5 48 50 53
259 3 28 25 29
260 5 103 102 104
261 5 10 7 11
262 5 7 4 9
263 3 66 61 67
264 2 140 145 147
265 3 166 160 168
266 5 124 121 126
267 5 118 117 119
268 19 142 138 143