#Polymer: S6I

376 atoms
382 bonds
728 angles
1042 dihedrals
232 impropers

9 atom types
10 bond types
16 angle types
30 dihedral types
2 improper types

 -50.00000   50.00000 xlo xhi
 -50.00000   50.00000 ylo yhi
 -50.00000   50.00000 zlo zhi

Masses

1 1.008
2 15.999
3 12.011
4 1.008
5 14.007
6 15.999
7 12.011
8 15.999
9 32.060

Pair Coeffs

1    0.000 0.0000000
2    0.170 3.1200000
3    0.066 3.5000000
4    0.030 2.5000000
5    0.170 3.3000000
6    0.140 2.9000000
7    0.070 3.5500000
8    0.210 2.9600000
9    0.355 3.6000000

Bond Coeffs

1 553.0000   0.9450
2 320.0000   1.4100
3 268.0000   1.5290
4 340.0000   1.0900
5 382.0000   1.4480
6 214.0000   1.3270
7 317.0000   1.5220
8 570.0000   1.2290
9 222.0000   1.8100
10 434.0000   1.0100

Angle Coeffs

1   55.000  108.500
2   50.000  109.500
3   35.000  109.500
4   58.350  112.700
5   37.500  110.700
6   56.200  109.470
7   83.000  116.900
8   81.000  111.400
9   83.000  123.400
10   63.000  111.100
11   50.000  114.700
12   62.000   98.900
13   80.000  120.400
14   51.800  107.200
15   60.000  109.500
16   33.000  107.800

Dihedral Coeffs

1   -0.356   -0.174    0.492    0.000
2   -1.552    0.000    0.000    0.000
3    1.300   -0.200    0.200    0.000
4    2.392   -0.674    0.550    0.000
5    1.711   -0.500    0.663    0.000
6   -1.220   -0.126    0.422    0.000
7    4.669    5.124    0.000    0.000
8    0.000    0.000   -0.553    0.000
9   -2.060   -0.313    0.315    0.000
10    2.619   -0.620    0.258    0.000
11    0.925   -0.576    0.677    0.000
12    0.416   -0.128    0.695    0.000
13    0.000    0.000    0.560    0.000
14   -1.013   -0.709    0.473    0.000
15    0.650   -0.250    0.670    0.000
16    0.000    0.000    0.452    0.000
17    0.000    0.000    0.300    0.000
18    0.000    5.124    0.000    0.000
19    0.000    0.000    0.352    0.000
20    0.000    0.000    0.468    0.000
21    0.000    0.000    0.198    0.000
22    0.000    0.000    0.000    0.000
23    0.000    0.000    0.400    0.000
24    0.000    0.000   -0.100    0.000
25    0.000    0.000    0.132    0.000
26    0.000    0.000    0.760    0.000
27    8.000    0.000    0.000    0.000
28    0.000    0.000    0.647    0.000
29   -0.190   -0.417    0.418    0.000
30   -0.550    0.000    0.000    0.000

Improper Coeffs

1    0.000  -1   2
2   10.500  -1   2

Atoms

1 1 1  0.4101   -1.23524   -4.17002   14.67609
2 1 2 -0.6808   -1.74629   -3.35631   14.83593
3 1 3  0.0936   -2.50665   -3.55994   16.00831
4 1 3 -0.1283   -3.33787   -4.84061   15.97484
5 1 4  0.1019   -3.16515   -2.69195   16.12269
6 1 4  0.1019   -1.82385   -3.57938   16.86303
7 1 3 -0.1305   -4.12075   -4.96652   14.38554
8 1 3  0.0542   -4.13940   -4.79824   17.55635
9 1 4  0.0994   -2.68156   -5.71995   16.00392
10 1 3  0.0727   -3.22137   -4.82933   12.87156
11 1 4  0.0934   -4.89550   -4.19175   14.35110
12 1 4  0.0934   -4.62630   -5.93940   14.36311
13 1 5 -0.7830   -3.50377   -5.42011   18.83068
14 1 4  0.0834   -5.09951   -5.30628   17.40955
15 1 4  0.0834   -4.36105   -3.74987   17.78653
16 1 6 -0.4750   -3.79619   -5.14310   11.39644
17 1 4  0.1127   -2.87034   -3.79943   12.79572
18 1 4  0.1127   -2.38266   -5.52719   12.96194
19 1 7  0.4206   -3.09726   -4.66535   10.20937
20 1 3 -0.1022   -3.54042   -5.26094    8.66649
21 1 8 -0.4406   -2.11481   -3.93263   10.32111
22 1 3 -0.1509   -3.29061   -4.39941    7.17534
23 1 4  0.1134   -2.99672   -6.20683    8.56028
24 1 4  0.1134   -4.61413   -5.47358    8.71808
25 1 3  0.0464   -2.99534   -5.12099    5.61424
26 1 4  0.1078   -4.20275   -3.80390    7.04253
27 1 4  0.1078   -2.46487   -3.70106    7.35216
28 1 9 -0.6026   -3.20205   -3.97567    3.81068
29 1 4  0.1103   -3.67990   -5.96116    5.47898
30 1 4  0.1103   -1.95080   -5.44532    5.59231
31 1 3  0.0459   -2.69205   -4.98893    1.99200
32 1 3 -0.1638   -2.80566   -4.18214    0.44879
33 1 4  0.1052   -3.34505   -5.86432    1.97474
34 1 4  0.1052   -1.64569   -5.27199    2.13975
35 1 3 -0.1620   -2.62093   -4.97238   -1.08214
36 1 4  0.0994   -2.06065   -3.37829    0.47129
37 1 4  0.0994   -3.80157   -3.72508    0.42411
38 1 3 -0.1613   -2.51419   -4.11610   -2.59144
39 1 4  0.0862   -3.46705   -5.66139   -1.17717
40 1 4  0.0862   -1.70088   -5.56493   -1.01171
41 1 3 -0.1643   -2.72611   -4.88208   -4.12551
42 1 4  0.0873   -3.26368   -3.31813   -2.54607
43 1 4  0.0873   -1.52037   -3.65324   -2.60909
44 1 3  0.0373   -2.31057   -4.16322   -5.64791
45 1 4  0.0987   -3.79114   -5.13161   -4.18771
46 1 4  0.0987   -2.15969   -5.81983   -4.07891
47 1 9 -0.5770   -3.25271   -4.79162   -7.45101
48 1 4  0.1060   -1.24336   -4.32193   -5.82520
49 1 4  0.1060   -2.54727   -3.09728   -5.59631
50 1 3  0.0383   -2.22478   -4.28125   -9.24425
51 1 3 -0.1602   -3.05356   -4.24881  -10.75403
52 1 4  0.1073   -1.80748   -3.28852   -9.05450
53 1 4  0.1073   -1.43397   -5.03378   -9.30752
54 1 3 -0.1116   -2.30776   -4.45873  -12.28031
55 1 4  0.1119   -3.57131   -3.28298  -10.79236
56 1 4  0.1119   -3.82294   -5.02766  -10.69590
57 1 7  0.4276   -2.95583   -3.85652  -13.71740
58 1 4  0.1158   -2.19009   -5.53825  -12.42354
59 1 4  0.1158   -1.31537   -4.00051  -12.20370
60 1 6 -0.4517   -2.55749   -4.47389  -14.95926
61 1 8 -0.4460   -3.66833   -2.85486  -13.71520
62 1 3  0.0565   -2.75586   -3.74388  -16.35471
63 1 3 -0.1525   -2.93142   -4.58630  -17.82609
64 1 4  0.1102   -1.85818   -3.12709  -16.44071
65 1 4  0.1102   -3.63805   -3.10508  -16.24249
66 1 3 -0.1364   -2.40058   -3.95729  -19.34098
67 1 4  0.0981   -4.00665   -4.77653  -17.93934
68 1 4  0.0981   -2.45091   -5.56370  -17.70103
69 1 3  0.0336   -3.02113   -4.52696  -20.84707
70 1 3  0.1076   -2.31386   -2.43286  -19.32501
71 1 4  0.0991   -1.36250   -4.31793  -19.39721
72 1 5 -0.7955   -3.08449   -3.64461  -22.11882
73 1 4  0.0936   -2.44181   -5.42423  -21.09436
74 1 4  0.0936   -4.05139   -4.84451  -20.65050
75 1 2 -0.6895   -1.61419   -1.97187  -20.48097
76 1 4  0.1008   -3.30506   -1.97707  -19.32449
77 1 4  0.1008   -1.76356   -2.08668  -18.44649
78 1 3  0.0642   -2.66515   -4.14058  -23.52435
79 1 1  0.3661   -2.52241   -2.80398  -21.91072
80 1 1  0.4234   -0.76642   -1.57883  -20.17575
81 1 4  0.0946   -1.57289   -4.23485  -23.46797
82 1 3  0.0106   -3.24018   -5.47704  -24.02275
83 1 3  0.0566   -2.95817   -3.24325  -24.83654
84 1 4  0.1106   -4.25921   -5.64394  -23.66363
85 1 4  0.1106   -2.61249   -6.31575  -23.70546
86 1 6 -0.3902   -3.28386   -5.48293  -25.47984
87 1 4  0.1429   -3.59719   -2.38066  -24.61844
88 1 6 -0.3888   -1.74303   -2.75502  -25.46362
89 1 3  0.0553   -3.57681   -4.14216  -25.93736
90 1 3  0.0028   -1.98974   -2.64329  -26.89333
91 1 4  0.1420   -4.66532   -4.03763  -25.99800
92 1 3  0.0625   -2.86824   -3.82465  -27.33698
93 1 4  0.1094   -2.49019   -1.68411  -27.07325
94 1 4  0.1094   -1.03078   -2.63184  -27.42187
95 1 4  0.0999   -2.23975   -4.69080  -27.58008
96 1 5 -0.7931   -3.69584   -3.51595  -28.60251
97 1 3  0.0404   -2.95286   -3.66037  -29.92983
98 1 1  0.3743   -4.47189   -4.18153  -28.62879
99 1 3 -0.1383   -3.62383   -3.07132  -31.29038
100 1 4  0.0834   -2.74808   -4.72436  -30.08907
101 1 4  0.0834   -2.00310   -3.14532  -29.79544
102 1 3 -0.1657   -3.17486   -3.76662  -32.67646
103 1 3  0.1054   -3.42770   -1.54437  -31.36014
104 1 4  0.1157   -4.70281   -3.25584  -31.20041
105 1 3  0.0081   -3.45459   -2.96823  -34.01529
106 1 4  0.1006   -3.68433   -4.73571  -32.75185
107 1 4  0.1006   -2.10470   -4.00079  -32.64346
108 1 2 -0.6861   -2.15355   -1.16055  -31.86367
109 1 4  0.1048   -4.17500   -1.10338  -32.03055
110 1 4  0.1048   -3.56075   -1.07709  -30.38161
111 1 6 -0.3638   -3.25737   -3.73255  -35.25947
112 1 4  0.1176   -4.49038   -2.61196  -34.01215
113 1 4  0.1176   -2.77330   -2.11314  -34.07079
114 1 1  0.4111   -1.50456   -1.87728  -31.71042
115 1 7  0.4213   -3.46410   -2.99296  -36.41674
116 1 3 -0.1523   -3.25931   -3.79466  -37.71965
117 1 8 -0.4872   -3.82239   -1.81987  -36.41205
118 1 3 -0.1608   -3.26028   -2.88609  -38.98639
119 1 4  0.1272   -4.07158   -4.52462  -37.80278
120 1 4  0.1272   -2.30236   -4.32336  -37.66600
121 1 3 -0.0719   -3.16825   -3.62402  -40.34267
122 1 4  0.1232   -4.17728   -2.28182  -38.98804
123 1 4  0.1232   -2.42234   -2.18205  -38.90173
124 1 9 -0.3878   -3.03157   -2.40095  -41.72054
125 1 4  0.1087   -4.06381   -4.23170  -40.50647
126 1 4  0.1087   -2.28704   -4.27154  -40.37637
127 1 3 -0.0729   -3.27632   -3.47694  -43.18063
128 1 3 -0.2239   -3.14746   -2.67872  -44.47633
129 1 4  0.1075   -4.27534   -3.92036  -43.13330
130 1 4  0.1075   -2.53301   -4.27985  -43.17821
131 1 4  0.0954   -2.12004   -2.33364  -44.63769
132 1 4  0.0954   -3.41507   -3.30685  -45.33492
133 1 4  0.0954   -3.81181   -1.80760  -44.49393
134 1 3  0.0564   -3.20565   -4.84165   20.26616
135 1 1  0.3683   -3.92014   -6.34451   18.97649
136 1 4  0.1288   -2.27713   -5.40169   20.46178
137 1 3  0.0128   -2.82444   -3.37266   20.48720
138 1 3  0.0346   -3.98591   -5.08593   21.69170
139 1 4  0.1124   -1.90121   -3.11030   19.96363
140 1 4  0.1124   -3.62536   -2.69294   20.18409
141 1 6 -0.3879   -2.59016   -3.18416   21.92751
142 1 4  0.1203   -5.06914   -5.13656   21.54242
143 1 6 -0.3860   -3.57404   -6.25120   22.44654
144 1 3  0.0483   -3.61533   -3.90205   22.65511
145 1 3  0.0075   -3.67336   -5.93881   23.87725
146 1 4  0.1353   -4.46779   -3.22585   22.78242
147 1 3  0.0779   -3.16551   -4.50691   24.09981
148 1 4  0.1121   -4.72388   -6.03820   24.17267
149 1 4  0.1121   -3.08260   -6.66795   24.44205
150 1 4  0.0972   -2.06742   -4.51280   24.10981
151 1 5 -0.8381   -3.58195   -3.80652   25.42725
152 1 3  0.0417   -3.43189   -4.50404   26.79458
153 1 1  0.3853   -3.07778   -2.91349   25.48165
154 1 3 -0.1364   -3.36259   -3.59718   28.20229
155 1 4  0.0932   -2.51558   -5.10434   26.77914
156 1 4  0.0932   -4.28511   -5.18328   26.90099
157 1 3 -0.1744   -3.48556   -4.30232   29.66042
158 1 3  0.1055   -4.43970   -2.50742   28.18147
159 1 4  0.1089   -2.36866   -3.13016   28.18403
160 1 3  0.0314   -2.88569   -3.45850   30.89171
161 1 4  0.1006   -4.54334   -4.49614   29.88398
162 1 4  0.1006   -2.98805   -5.27768   29.65091
163 1 2 -0.6940   -3.90014   -1.37377   27.52472
164 1 4  0.0967   -5.35063   -2.84934   27.67954
165 1 4  0.0967   -4.72355   -2.18449   29.18983
166 1 6 -0.4106   -3.46052   -3.77133   32.22524
167 1 4  0.1120   -3.04820   -2.38786   30.72912
168 1 4  0.1120   -1.80618   -3.64484   30.94265
169 1 1  0.4360   -4.59464   -0.68997   27.51535
170 1 7  0.4421   -2.86407   -3.14514   33.31849
171 1 3 -0.1558   -3.59105   -3.39463   34.66936
172 1 8 -0.4513   -1.87661   -2.42870   33.22513
173 1 3 -0.1576   -2.83229   -2.83916   35.92355
174 1 4  0.1248   -4.57289   -2.91261   34.61658
175 1 4  0.1248   -3.72446   -4.47316   34.79856
176 1 3 -0.0661   -3.59362   -2.94592   37.27548
177 1 4  0.1186   -2.58932   -1.78275   35.75511
178 1 4  0.1186   -1.87515   -3.36963   36.00828
179 1 9 -0.3966   -2.50996   -2.45171   38.69636
180 1 4  0.1083   -4.46617   -2.28504   37.27199
181 1 4  0.1083   -3.92460   -3.97313   37.45323
182 1 3 -0.0699   -3.70393   -2.47959   40.09426
183 1 3 -0.2274   -3.00182   -2.35518   41.44695
184 1 4  0.1085   -4.40122   -1.64371   39.98055
185 1 4  0.1085   -4.26996   -3.41522   40.07553
186 1 4  0.0962   -3.74209   -2.35366   42.25744
187 1 4  0.0962   -2.43303   -1.42377   41.53455
188 1 4  0.0962   -2.32320   -3.19458   41.63392
189 1 1  0.4101   -1.03270   -1.54972   14.62033
190 1 2 -0.6808   -0.51303   -0.75788   14.87914
191 1 3  0.0936   -0.19688   -0.89701   16.24508
192 1 3 -0.1283    1.13797   -1.64382   16.55878
193 1 4  0.1019   -1.03689   -1.41368   16.71893
194 1 4  0.1019   -0.16837    0.10329   16.68861
195 1 3 -0.1305    1.46800   -2.69096   15.19890
196 1 3  0.0542    0.85885   -1.94865   18.31720
197 1 4  0.0994    1.96249   -0.92008   16.53921
198 1 3  0.0727    1.78767   -2.02722   13.58138
199 1 4  0.0934    0.64410   -3.39642   15.09823
200 1 4  0.0934    2.35488   -3.28025   15.46189
201 1 5 -0.7830    1.75319   -2.27137   19.51677
202 1 4  0.0834    0.05562   -2.69581   18.33886
203 1 4  0.0834    0.39914   -1.00241   18.62562
204 1 6 -0.4750    1.63176   -2.83824   12.18991
205 1 4  0.1127    1.20088   -1.12295   13.43235
206 1 4  0.1127    2.85193   -1.76839   13.59290
207 1 7  0.4206    1.78779   -2.14761   10.91204
208 1 3 -0.1022    1.75549   -3.04432    9.44907
209 1 8 -0.4406    2.03913   -0.94335   10.88573
210 1 3 -0.1509    1.50399   -2.32522    7.87301
211 1 4  0.1134    2.71874   -3.56193    9.39595
212 1 4  0.1134    0.95211   -3.78113    9.56767
213 1 3  0.0464    2.12651   -2.92880    6.35553
214 1 4  0.1078    0.41350   -2.31441    7.74394
215 1 4  0.1078    1.83563   -1.28404    7.94936
216 1 9 -0.6026    1.42653   -2.15314    4.47452
217 1 4  0.1103    1.92124   -3.99996    6.29342
218 1 4  0.1103    3.19959   -2.72081    6.33143
219 1 3  0.0459    2.36911   -2.94369    2.71633
220 1 3 -0.1638    1.91576   -2.39832    1.11857
221 1 4  0.1052    2.19523   -4.02053    2.77485
222 1 4  0.1052    3.42535   -2.69888    2.85949
223 1 3 -0.1620    2.49321   -3.10601   -0.35623
224 1 4  0.0994    2.18165   -1.33597    1.07350
225 1 4  0.0994    0.82333   -2.47993    1.07403
226 1 3 -0.1613    2.22247   -2.40366   -1.92330
227 1 4  0.0862    2.07642   -4.11824   -0.39593
228 1 4  0.0862    3.58176   -3.18548   -0.25152
229 1 3 -0.1643    2.45818   -3.27019   -3.39943
230 1 4  0.0873    1.17922   -2.06831   -1.93430
231 1 4  0.0873    2.86788   -1.51918   -1.97618
232 1 3  0.0373    2.54540   -2.52933   -4.96238
233 1 4  0.0987    1.63945   -3.99675   -3.45165
234 1 4  0.0987    3.39722   -3.82403   -3.28284
235 1 9 -0.5770    2.10181   -3.62706   -6.73148
236 1 4  0.1060    3.56405   -2.16265   -5.11630
237 1 4  0.1060    1.82363   -1.70872   -4.98934
238 1 3  0.0383    2.87518   -2.79510   -8.52882
239 1 3 -0.1602    2.23017   -3.24321  -10.05744
240 1 4  0.1073    2.76131   -1.71468   -8.40734
241 1 4  0.1073    3.92932   -3.08442   -8.50907
242 1 3 -0.1116    3.07952   -3.11909  -11.53817
243 1 4  0.1119    1.30813   -2.66217  -10.17971
244 1 4  0.1119    1.93888   -4.29699   -9.97290
245 1 7  0.4276    2.29762   -3.02934  -13.02446
246 1 4  0.1158    3.73788   -3.99332  -11.59016
247 1 4  0.1158    3.68874   -2.21115  -11.47372
248 1 6 -0.4517    3.06817   -3.27939  -14.21640
249 1 8 -0.4460    1.12109   -2.68094  -13.09653
250 1 3  0.0565    2.51071   -2.89466  -15.64490
251 1 3 -0.1525    3.09806   -3.59463  -17.08502
252 1 4  0.1102    2.70870   -1.82080  -15.71980
253 1 4  0.1102    1.43198   -3.07414  -15.60873
254 1 3 -0.1364    2.73756   -2.90031  -18.61182
255 1 4  0.0981    2.71901   -4.62374  -17.10646
256 1 4  0.0981    4.18906   -3.65666  -17.00347
257 1 3  0.0336    3.09724   -3.70244  -20.09726
258 1 3  0.1076    1.26539   -2.48803  -18.61655
259 1 4  0.0991    3.34755   -1.98734  -18.66134
260 1 5 -0.7955    2.62019   -3.05762  -21.43956
261 1 4  0.0936    4.18550   -3.81250  -20.14584
262 1 4  0.0936    2.63741   -4.69471  -20.04145
263 1 2 -0.6895    0.94333   -1.67465  -19.73960
264 1 4  0.1008    0.62073   -3.36917  -18.63267
265 1 4  0.1008    1.02322   -1.89942  -17.72867
266 1 3  0.0642    3.10137   -3.59999  -22.83314
267 1 1  0.3661    2.96513   -2.08771  -21.43236
268 1 1  0.4234    1.22309   -2.17878  -20.53852
269 1 4  0.0946    4.15575   -3.29824  -22.89465
270 1 3  0.0106    3.02034   -5.10170  -23.14773
271 1 3  0.0566    2.41238   -3.04899  -24.18788
272 1 4  0.1106    2.07939   -5.54291  -22.80648
273 1 4  0.1106    3.85646   -5.65112  -22.70512
274 1 6 -0.3902    3.08793   -5.27018  -24.59980
275 1 4  0.1429    1.42470   -2.61641  -23.99252
276 1 6 -0.3888    3.21178   -2.06618  -24.88304
277 1 3  0.0553    2.30284   -4.21829  -25.20747
278 1 3  0.0028    2.96109   -2.22122  -26.30822
279 1 4  0.1420    1.27234   -4.58047  -25.29870
280 1 3  0.0625    2.87058   -3.72268  -26.62288
281 1 4  0.1094    2.01884   -1.70972  -26.54224
282 1 4  0.1094    3.76452   -1.73514  -26.87012
283 1 4  0.0999    3.87210   -4.15509  -26.73722
284 1 5 -0.7931    2.10546   -4.01389  -27.93361
285 1 3  0.0404    2.87736   -3.81828  -29.23314
286 1 1  0.3743    1.83853   -5.00194  -27.89784
287 1 3 -0.1383    2.11975   -3.59645  -30.66057
288 1 4  0.0834    3.59366   -4.63855  -29.34536
289 1 4  0.0834    3.46992   -2.90329  -29.10307
290 1 3 -0.1657    2.75753   -4.28182  -31.96619
291 1 3  0.1054    0.61687   -3.89270  -30.63116
292 1 4  0.1157    2.23935   -2.51940  -30.85453
293 1 3  0.0081    2.19372   -3.74753  -33.34766
294 1 4  0.1006    2.59482   -5.36663  -31.92744
295 1 4  0.1006    3.84361   -4.13716  -31.96408
296 1 2 -0.6861   -0.08274   -2.73344  -31.09385
297 1 4  0.1048    0.34209   -4.71537  -31.30079
298 1 4  0.1048    0.23119   -4.14276  -29.64291
299 1 6 -0.3638    2.70597   -4.44127  -34.54184
300 1 4  0.1176    1.10331   -3.84295  -33.36387
301 1 4  0.1176    2.46450   -2.69017  -33.44612
302 1 1  0.4111    0.14200   -2.01408  -30.46929
303 1 7  0.4213    2.16463   -3.98459  -35.73968
304 1 3 -0.1523    2.70266   -4.72319  -36.98763
305 1 8 -0.4872    1.32750   -3.10461  -35.80546
306 1 3 -0.1608    2.27272   -4.03033  -38.31612
307 1 4  0.1272    2.31651   -5.74774  -36.97670
308 1 4  0.1272    3.79582   -4.74779  -36.94183
309 1 3 -0.0719    2.72499   -4.73505  -39.61700
310 1 4  0.1232    1.17769   -3.94647  -38.33402
311 1 4  0.1232    2.66405   -3.00478  -38.30782
312 1 9 -0.3878    2.29375   -3.69501  -41.08043
313 1 4  0.1087    2.22516   -5.70336  -39.71956
314 1 4  0.1087    3.80788   -4.89038  -39.62017
315 1 3 -0.0729    2.64193   -4.85029  -42.45726
316 1 3 -0.2239    2.41763   -4.17554  -43.80886
317 1 4  0.1075    1.97542   -5.71385  -42.37475
318 1 4  0.1075    3.67802   -5.19684  -42.39681
319 1 4  0.0954    3.15925   -3.39101  -43.99665
320 1 4  0.0954    2.51413   -4.91009  -44.61787
321 1 4  0.0954    1.41827   -3.73388  -43.89065
322 1 3  0.0564    1.60887   -1.62128   20.97637
323 1 1  0.3683    1.79216   -3.28362   19.65495
324 1 4  0.1288    2.67008   -1.63312   21.26814
325 1 3  0.0128    1.15319   -0.15775   21.11067
326 1 3  0.0346    0.90691   -2.18656   22.34732
327 1 4  0.1124    1.84107    0.53296   20.61691
328 1 4  0.1124    0.14185   -0.01159   20.71886
329 1 6 -0.3879    1.12206    0.17303   22.53608
330 1 4  0.1203    0.01631   -2.77546   22.11372
331 1 6 -0.3860    1.74348   -2.97090   23.23552
332 1 3  0.0483    0.53778   -0.94458   23.23660
333 1 3  0.0075    1.33770   -2.68285   24.62096
334 1 4  0.1353   -0.54884   -0.80221   23.25977
335 1 3  0.0779    1.09772   -1.17136   24.73499
336 1 4  0.1121    0.42638   -3.25319   24.83441
337 1 4  0.1121    2.12890   -3.02186   25.29832
338 1 4  0.0972    2.07169   -0.66718   24.79008
339 1 5 -0.8381    0.29231   -0.62738   25.93034
340 1 3  0.0417    0.54101   -1.03550   27.37709
341 1 1  0.3853    0.27585    0.39349   25.87439
342 1 3 -0.1364    0.16450   -0.02475   28.64820
343 1 4  0.0932    1.61188   -1.24442   27.49164
344 1 4  0.0932    0.00340   -1.97396   27.55109
345 1 3 -0.1744    0.11030   -0.65282   30.15610
346 1 3  0.1055   -1.10796    0.84217   28.49001
347 1 4  0.1089    1.00956    0.67730   28.69522
348 1 3  0.0314    0.37422    0.37556   31.35665
349 1 4  0.1006   -0.87696   -1.10538   30.31900
350 1 4  0.1006    0.83450   -1.46951   30.24611
351 1 2 -0.6940   -1.97019    0.46512   27.44055
352 1 4  0.0967   -1.70459    0.87929   29.41000
353 1 4  0.0967   -0.80467    1.87592   28.29300
354 1 6 -0.4106   -0.03743   -0.07964   32.70457
355 1 4  0.1120   -0.16084    1.31118   31.16637
356 1 4  0.1120    1.44992    0.57964   31.39851
357 1 1  0.4360   -2.36693   -0.40884   27.63788
358 1 7  0.4421    0.23471    0.78528   33.76110
359 1 3 -0.1558   -0.30825    0.30731   35.13746
360 1 8 -0.4513    0.82665    1.84931   33.61561
361 1 3 -0.1576    0.07205    1.23003   36.34769
362 1 4  0.1248   -1.40002    0.26449   35.07054
363 1 4  0.1248    0.08166   -0.69618   35.33659
364 1 3 -0.0661   -0.56188    0.83353   37.71113
365 1 4  0.1186   -0.22264    2.26212   36.11776
366 1 4  0.1186    1.16473    1.23312   36.45230
367 1 9 -0.3966    0.05403    1.90623   39.09309
368 1 4  0.1083   -1.65077    0.93507   37.66736
369 1 4  0.1083   -0.30731   -0.19936   37.96307
370 1 3 -0.0699   -1.00218    1.33370   40.48382
371 1 3 -0.2274   -0.52645    1.88133   41.82964
372 1 4  0.1085   -2.03000    1.66774   40.31025
373 1 4  0.1085   -0.98953    0.24162   40.52496
374 1 4  0.0962   -1.20332    1.55501   42.63013
375 1 4  0.0962   -0.51096    2.97654   41.84960
376 1 4  0.0962    0.47322    1.51483   42.08758

Bonds

1 1 2 1
2 2 3 2
3 3 4 3
4 4 5 3
5 4 6 3
6 3 7 4
7 3 8 4
8 4 9 4
9 3 10 7
10 4 11 7
11 4 12 7
12 5 13 8
13 4 14 8
14 4 15 8
15 2 16 10
16 4 17 10
17 4 18 10
18 6 19 16
19 7 20 19
20 8 21 19
21 3 22 20
22 4 23 20
23 4 24 20
24 3 25 22
25 4 26 22
26 4 27 22
27 9 28 25
28 4 29 25
29 4 30 25
30 9 31 28
31 3 32 31
32 4 33 31
33 4 34 31
34 3 35 32
35 4 36 32
36 4 37 32
37 3 38 35
38 4 39 35
39 4 40 35
40 3 41 38
41 4 42 38
42 4 43 38
43 3 44 41
44 4 45 41
45 4 46 41
46 9 47 44
47 4 48 44
48 4 49 44
49 9 50 47
50 3 51 50
51 4 52 50
52 4 53 50
53 3 54 51
54 4 55 51
55 4 56 51
56 7 57 54
57 4 58 54
58 4 59 54
59 6 60 57
60 8 61 57
61 2 62 60
62 3 63 62
63 4 64 62
64 4 65 62
65 3 66 63
66 4 67 63
67 4 68 63
68 3 69 66
69 3 70 66
70 4 71 66
71 5 72 69
72 4 73 69
73 4 74 69
74 2 75 70
75 4 76 70
76 4 77 70
77 5 78 72
78 10 79 72
79 1 80 75
80 4 81 78
81 3 82 78
82 3 83 78
83 4 84 82
84 4 85 82
85 2 86 82
86 4 87 83
87 2 88 83
88 3 89 83
89 2 90 88
90 4 91 89
91 3 92 89
92 4 93 90
93 4 94 90
94 4 95 92
95 5 96 92
96 5 97 96
97 10 98 96
98 3 99 97
99 4 100 97
100 4 101 97
101 3 102 99
102 3 103 99
103 4 104 99
104 3 105 102
105 4 106 102
106 4 107 102
107 2 108 103
108 4 109 103
109 4 110 103
110 2 111 105
111 4 112 105
112 4 113 105
113 1 114 108
114 6 115 111
115 7 116 115
116 8 117 115
117 3 118 116
118 4 119 116
119 4 120 116
120 3 121 118
121 4 122 118
122 4 123 118
123 9 124 121
124 4 125 121
125 4 126 121
126 9 127 124
127 3 128 127
128 4 129 127
129 4 130 127
130 4 131 128
131 4 132 128
132 4 133 128
133 5 134 13
134 10 135 13
135 4 136 134
136 3 137 134
137 3 138 134
138 4 139 137
139 4 140 137
140 2 141 137
141 4 142 138
142 2 143 138
143 3 144 138
144 2 145 143
145 4 146 144
146 3 147 144
147 4 148 145
148 4 149 145
149 4 150 147
150 5 151 147
151 5 152 151
152 10 153 151
153 3 154 152
154 4 155 152
155 4 156 152
156 3 157 154
157 3 158 154
158 4 159 154
159 3 160 157
160 4 161 157
161 4 162 157
162 2 163 158
163 4 164 158
164 4 165 158
165 2 166 160
166 4 167 160
167 4 168 160
168 1 169 163
169 6 170 166
170 7 171 170
171 8 172 170
172 3 173 171
173 4 174 171
174 4 175 171
175 3 176 173
176 4 177 173
177 4 178 173
178 9 179 176
179 4 180 176
180 4 181 176
181 9 182 179
182 3 183 182
183 4 184 182
184 4 185 182
185 4 186 183
186 4 187 183
187 4 188 183
188 2 89 86
189 3 92 90
190 2 144 141
191 3 147 145
192 1 190 189
193 2 191 190
194 3 192 191
195 4 193 191
196 4 194 191
197 3 195 192
198 3 196 192
199 4 197 192
200 3 198 195
201 4 199 195
202 4 200 195
203 5 201 196
204 4 202 196
205 4 203 196
206 2 204 198
207 4 205 198
208 4 206 198
209 6 207 204
210 7 208 207
211 8 209 207
212 3 210 208
213 4 211 208
214 4 212 208
215 3 213 210
216 4 214 210
217 4 215 210
218 9 216 213
219 4 217 213
220 4 218 213
221 9 219 216
222 3 220 219
223 4 221 219
224 4 222 219
225 3 223 220
226 4 224 220
227 4 225 220
228 3 226 223
229 4 227 223
230 4 228 223
231 3 229 226
232 4 230 226
233 4 231 226
234 3 232 229
235 4 233 229
236 4 234 229
237 9 235 232
238 4 236 232
239 4 237 232
240 9 238 235
241 3 239 238
242 4 240 238
243 4 241 238
244 3 242 239
245 4 243 239
246 4 244 239
247 7 245 242
248 4 246 242
249 4 247 242
250 6 248 245
251 8 249 245
252 2 250 248
253 3 251 250
254 4 252 250
255 4 253 250
256 3 254 251
257 4 255 251
258 4 256 251
259 3 257 254
260 3 258 254
261 4 259 254
262 5 260 257
263 4 261 257
264 4 262 257
265 2 263 258
266 4 264 258
267 4 265 258
268 5 266 260
269 10 267 260
270 1 268 263
271 4 269 266
272 3 270 266
273 3 271 266
274 4 272 270
275 4 273 270
276 2 274 270
277 4 275 271
278 2 276 271
279 3 277 271
280 2 278 276
281 4 279 277
282 3 280 277
283 4 281 278
284 4 282 278
285 4 283 280
286 5 284 280
287 5 285 284
288 10 286 284
289 3 287 285
290 4 288 285
291 4 289 285
292 3 290 287
293 3 291 287
294 4 292 287
295 3 293 290
296 4 294 290
297 4 295 290
298 2 296 291
299 4 297 291
300 4 298 291
301 2 299 293
302 4 300 293
303 4 301 293
304 1 302 296
305 6 303 299
306 7 304 303
307 8 305 303
308 3 306 304
309 4 307 304
310 4 308 304
311 3 309 306
312 4 310 306
313 4 311 306
314 9 312 309
315 4 313 309
316 4 314 309
317 9 315 312
318 3 316 315
319 4 317 315
320 4 318 315
321 4 319 316
322 4 320 316
323 4 321 316
324 5 322 201
325 10 323 201
326 4 324 322
327 3 325 322
328 3 326 322
329 4 327 325
330 4 328 325
331 2 329 325
332 4 330 326
333 2 331 326
334 3 332 326
335 2 333 331
336 4 334 332
337 3 335 332
338 4 336 333
339 4 337 333
340 4 338 335
341 5 339 335
342 5 340 339
343 10 341 339
344 3 342 340
345 4 343 340
346 4 344 340
347 3 345 342
348 3 346 342
349 4 347 342
350 3 348 345
351 4 349 345
352 4 350 345
353 2 351 346
354 4 352 346
355 4 353 346
356 2 354 348
357 4 355 348
358 4 356 348
359 1 357 351
360 6 358 354
361 7 359 358
362 8 360 358
363 3 361 359
364 4 362 359
365 4 363 359
366 3 364 361
367 4 365 361
368 4 366 361
369 9 367 364
370 4 368 364
371 4 369 364
372 9 370 367
373 3 371 370
374 4 372 370
375 4 373 370
376 4 374 371
377 4 375 371
378 4 376 371
379 2 277 274
380 3 280 278
381 2 332 329
382 3 335 333

Angles

1 1 1 2 3
2 2 2 3 4
3 3 2 3 5
4 3 2 3 6
5 4 3 4 7
6 4 3 4 8
7 5 3 4 9
8 4 4 7 10
9 5 4 7 11
10 5 4 7 12
11 6 4 8 13
12 5 4 8 14
13 5 4 8 15
14 2 7 10 16
15 5 7 10 17
16 5 7 10 18
17 7 10 16 19
18 8 16 19 20
19 9 16 19 21
20 10 19 20 22
21 3 19 20 23
22 3 19 20 24
23 4 20 22 25
24 5 20 22 26
25 5 20 22 27
26 11 22 25 28
27 5 22 25 29
28 5 22 25 30
29 12 25 28 31
30 11 28 31 32
31 3 28 31 33
32 3 28 31 34
33 4 31 32 35
34 5 31 32 36
35 5 31 32 37
36 4 32 35 38
37 5 32 35 39
38 5 32 35 40
39 4 35 38 41
40 5 35 38 42
41 5 35 38 43
42 4 38 41 44
43 5 38 41 45
44 5 38 41 46
45 11 41 44 47
46 5 41 44 48
47 5 41 44 49
48 12 44 47 50
49 11 47 50 51
50 3 47 50 52
51 3 47 50 53
52 4 50 51 54
53 5 50 51 55
54 5 50 51 56
55 10 51 54 57
56 5 51 54 58
57 5 51 54 59
58 8 54 57 60
59 13 54 57 61
60 7 57 60 62
61 2 60 62 63
62 3 60 62 64
63 3 60 62 65
64 4 62 63 66
65 5 62 63 67
66 5 62 63 68
67 4 63 66 69
68 4 63 66 70
69 5 63 66 71
70 6 66 69 72
71 5 66 69 73
72 5 66 69 74
73 2 66 70 75
74 5 66 70 76
75 5 66 70 77
76 14 69 72 78
77 3 69 72 79
78 1 70 75 80
79 3 72 78 81
80 6 72 78 82
81 6 72 78 83
82 5 78 82 84
83 5 78 82 85
84 2 78 82 86
85 5 78 83 87
86 2 78 83 88
87 4 78 83 89
88 15 83 88 90
89 5 83 89 91
90 4 83 89 92
91 3 88 90 93
92 3 88 90 94
93 5 89 92 95
94 6 89 92 96
95 14 92 96 97
96 3 92 96 98
97 6 96 97 99
98 3 96 97 100
99 3 96 97 101
100 4 97 99 102
101 4 97 99 103
102 5 97 99 104
103 4 99 102 105
104 5 99 102 106
105 5 99 102 107
106 2 99 103 108
107 5 99 103 109
108 5 99 103 110
109 2 102 105 111
110 5 102 105 112
111 5 102 105 113
112 1 103 108 114
113 7 105 111 115
114 8 111 115 116
115 9 111 115 117
116 10 115 116 118
117 3 115 116 119
118 3 115 116 120
119 4 116 118 121
120 5 116 118 122
121 5 116 118 123
122 11 118 121 124
123 5 118 121 125
124 5 118 121 126
125 12 121 124 127
126 11 124 127 128
127 3 124 127 129
128 3 124 127 130
129 5 127 128 131
130 5 127 128 132
131 5 127 128 133
132 14 8 13 134
133 3 8 13 135
134 3 13 134 136
135 6 13 134 137
136 6 13 134 138
137 5 134 137 139
138 5 134 137 140
139 2 134 137 141
140 5 134 138 142
141 2 134 138 143
142 4 134 138 144
143 15 138 143 145
144 5 138 144 146
145 4 138 144 147
146 3 143 145 148
147 3 143 145 149
148 5 144 147 150
149 6 144 147 151
150 14 147 151 152
151 3 147 151 153
152 6 151 152 154
153 3 151 152 155
154 3 151 152 156
155 4 152 154 157
156 4 152 154 158
157 5 152 154 159
158 4 154 157 160
159 5 154 157 161
160 5 154 157 162
161 2 154 158 163
162 5 154 158 164
163 5 154 158 165
164 2 157 160 166
165 5 157 160 167
166 5 157 160 168
167 1 158 163 169
168 7 160 166 170
169 8 166 170 171
170 9 166 170 172
171 10 170 171 173
172 3 170 171 174
173 3 170 171 175
174 4 171 173 176
175 5 171 173 177
176 5 171 173 178
177 11 173 176 179
178 5 173 176 180
179 5 173 176 181
180 12 176 179 182
181 11 179 182 183
182 3 179 182 184
183 3 179 182 185
184 5 182 183 186
185 5 182 183 187
186 5 182 183 188
187 5 38 35 39
188 3 13 8 14
189 16 23 20 24
190 2 83 89 86
191 5 81 78 83
192 5 147 145 149
193 5 103 99 104
194 5 70 66 71
195 16 119 116 120
196 5 173 171 175
197 16 55 51 56
198 16 39 35 40
199 2 86 89 92
200 5 32 31 33
201 3 47 44 48
202 3 72 69 73
203 15 137 141 144
204 5 121 118 122
205 3 108 103 110
206 5 136 134 137
207 16 52 50 53
208 16 5 3 6
209 5 176 173 178
210 5 128 127 130
211 16 106 102 107
212 3 75 70 77
213 16 167 160 168
214 3 13 8 15
215 3 16 10 18
216 3 47 44 49
217 4 137 134 138
218 16 17 10 18
219 5 25 22 26
220 2 88 90 92
221 5 66 63 67
222 3 152 151 153
223 16 11 7 12
224 4 69 66 70
225 16 131 128 132
226 3 84 82 86
227 5 92 90 94
228 3 163 158 165
229 16 48 44 49
230 3 166 160 167
231 16 139 137 140
232 3 72 69 74
233 5 41 38 42
234 5 176 173 177
235 13 20 19 21
236 5 160 157 161
237 5 10 7 12
238 5 63 62 64
239 5 32 31 34
240 5 160 157 162
241 16 14 8 15
242 16 161 157 162
243 16 180 176 181
244 5 128 127 129
245 5 25 22 27
246 3 140 137 141
247 5 105 102 107
248 4 157 154 158
249 16 174 171 175
250 5 4 3 5
251 2 138 144 141
252 5 99 97 100
253 16 36 32 37
254 3 75 70 76
255 3 28 25 29
256 5 66 63 68
257 16 73 69 74
258 3 141 144 146
259 3 78 72 79
260 5 10 7 11
261 5 7 4 9
262 16 109 103 110
263 16 186 183 188
264 13 116 115 117
265 3 166 160 168
266 3 124 121 126
267 3 142 138 143
268 4 82 78 83
269 16 26 22 27
270 3 28 25 30
271 5 99 97 101