LAMMPS data file via write_data, version 23 Jun 2022, timestep = 500000

8160 atoms
5 atom types

64.73867943689667 104.66132056305611 xlo xhi
56.77420141222073 93.22579858774345 ylo yhi
71.0231698457956 128.9768301542191 zlo zhi

Masses

1 15.999
2 12.011
3 14.007
4 1.008
5 32.06

Atoms # charge/kk

1619 2 3.5874499304318164e-01 6.8004983143921280e+01 5.9767169645876692e+01 7.3015356526012255e+01 0 0 0
1622 1 -5.8196269288397318e-01 6.7093043796129933e+01 6.0119618932330681e+01 7.3834627347282563e+01 0 0 0
5921 2 -2.2558645756981907e-01 7.3203241286694436e+01 5.7540128718524002e+01 7.6541181286646761e+01 0 0 0
1620 4 2.4615919009986892e-01 6.9917236373932283e+01 5.9341292036166401e+01 7.2424420807333647e+01 0 0 0
1618 3 -4.2203897147167729e-01 6.9445999435585534e+01 5.9510430733845631e+01 7.3392109645200364e+01 0 0 0
1614 2 -4.5049707245832023e-02 7.0366456353039382e+01 6.0620523393343397e+01 7.4109089751240660e+01 0 0 0
1613 4 1.4588823376750448e-01 6.9248797653898720e+01 5.9927183795020071e+01 7.5708861668874007e+01 0 0 0
6115 4 1.8519757908319437e-01 7.0253058818201666e+01 5.8045703972171751e+01 7.4910752149625935e+01 0 0 0
6112 2 -1.4049965897187217e-01 6.9553902151673299e+01 5.7820971774023974e+01 7.4130053572327057e+01 0 0 0
5923 2 -1.9745780349336628e-01 7.4288947060584448e+01 5.7227396669198740e+01 7.7582968388149609e+01 0 0 0
1611 2 1.1760107700406361e-01 7.0159295056154221e+01 6.0577663450385934e+01 7.5649775072093618e+01 0 0 0
1617 4 2.0897377623509669e-01 7.1418653847540966e+01 6.0360264879656917e+01 7.3784069471344537e+01 0 0 0
5925 4 1.5148073843457929e-01 7.3670409747218045e+01 5.8052375193866084e+01 7.5597299769078077e+01 0 0 0
6113 2 -1.9698474674458091e-01 6.8220346250160631e+01 5.7322059968844698e+01 7.4682219185135878e+01 0 0 0
5924 4 2.0842227426302201e-01 7.2483570412668513e+01 5.8341341660413953e+01 7.6883557363355251e+01 0 0 0
6116 4 1.9567968455197909e-01 6.7470975039893744e+01 5.8156231198292041e+01 7.4657604694861760e+01 0 0 0
5761 1 -5.8715348649262855e-01 7.3367194932098101e+01 6.0289548269517091e+01 7.3693475057181246e+01 0 0 0
1608 1 -5.0310653239448133e-01 7.1362216797012650e+01 6.0182744994320004e+01 7.6353657091689655e+01 0 0 0
1615 4 1.3046346057797709e-01 6.9081939633830430e+01 6.2019815278434528e+01 7.3175412074020286e+01 0 0 0
1612 2 -2.0410154372397411e-02 7.0022790608075454e+01 6.2071803295145280e+01 7.3761448890475450e+01 0 0 0
1605 2 9.2181175911376076e-02 6.9733239762367631e+01 6.2011246719509913e+01 7.6130224312010554e+01 0 0 0
1985 2 -2.1694355284965991e-01 6.8753739438667040e+01 5.7914120226060405e+01 7.7207951984174244e+01 0 0 0
5763 4 1.9565950985464536e-01 7.2577340030612518e+01 6.2435776760310176e+01 7.4980359987721840e+01 0 0 0
1616 4 1.1837239298654717e-01 7.0790423980785405e+01 6.2310553652177369e+01 7.2980791228231396e+01 0 0 0
1601 2 -1.9803446723160020e-02 7.0560064180433486e+01 6.2283154223705537e+01 7.7381020653136375e+01 0 0 0
1609 4 1.3561274989187447e-01 6.8625381523249388e+01 6.2018934361273949e+01 7.6412022731763983e+01 0 0 0
5760 2 -2.4103680885233203e-01 7.3697874732757299e+01 6.2468984959163421e+01 7.4687523551469681e+01 0 0 0
1574 4 1.7855160837961059e-01 6.7044186862305963e+01 6.2412927817733618e+01 7.3900766913158435e+01 0 0 0
1610 1 -4.7594732915792470e-01 7.0008964927043920e+01 6.2879446654354417e+01 7.4998167726857972e+01 0 0 0
1577 2 -1.8162517317100418e-01 6.6859715491961325e+01 6.4994311995386596e+01 7.6730196685731457e+01 0 0 0
5762 2 -1.9328512010132889e-01 7.4017120725631244e+01 6.3596650452352776e+01 7.3591846016944260e+01 0 0 0
5767 4 1.3755155447520737e-01 7.3299471596231996e+01 6.3509737452316543e+01 7.2709198136021541e+01 0 0 0
1603 4 1.4866758723599685e-01 7.1181276079625235e+01 6.3157657326907263e+01 7.7236125442022640e+01 0 0 0
3000 4 1.8103882856139736e-01 6.9450815839881031e+01 6.5111837672996884e+01 7.2059008570263615e+01 0 0 0
1576 5 -9.2092978958600247e-02 6.7921822533840853e+01 6.5180902455657900e+01 7.4993878435230158e+01 0 0 0
1580 4 1.5448646014748565e-01 6.6507941101732953e+01 6.3950580196909733e+01 7.7003135667564052e+01 0 0 0
1621 2 -2.0960953881651950e-01 6.7439787433488704e+01 5.9742591054151923e+01 7.1623972803612602e+01 0 0 0
1570 2 -1.6917509021174770e-01 6.6196342572579454e+01 6.3001052308774703e+01 7.3385731249137265e+01 0 0 0
1573 5 -9.5219859868841419e-02 6.6307457285963423e+01 6.5021547782016412e+01 7.3495319530536264e+01 0 0 0
5930 4 1.2017414802662219e-01 7.4156895548634239e+01 5.9440973065652031e+01 7.7834206881626571e+01 0 0 0
1604 2 9.1720427805467731e-03 7.1545923997771538e+01 6.1044664777719603e+01 7.7487048195364181e+01 0 0 0
1575 4 1.3108631671219395e-01 6.6086759929677356e+01 6.2580753609041608e+01 7.2348564039941607e+01 0 0 0
5765 2 -1.7954513159399293e-01 7.4023413122777285e+01 6.5009062497867134e+01 7.4299960727432435e+01 0 0 0
5768 5 -7.5776620898166253e-02 7.2386564966519302e+01 6.5170252880073363e+01 7.5478494601903208e+01 0 0 0
1565 4 1.4324081168482594e-01 6.5188957038989457e+01 6.0486025124398267e+01 7.2340820670848288e+01 0 0 0
1585 4 1.7296114770387686e-01 6.9857222870241998e+01 6.5225678144519449e+01 7.7040394597324109e+01 0 0 0
6114 4 1.2466143623319963e-01 7.0081571887861799e+01 5.7211108307270621e+01 7.3330302128121872e+01 0 0 0
1711 1 -5.7364230251441217e-01 6.4903133448746658e+01 6.2118066970895129e+01 7.8267330810219349e+01 0 0 0
1567 2 -1.7502261939651692e-01 6.4887857379445734e+01 6.2710835289019982e+01 7.4046907567179332e+01 0 0 0
6119 2 -1.7320108549765106e-01 6.8395432904898371e+01 5.6800693356675239e+01 7.6270999759474421e+01 0 0 0
1572 4 1.4872645335813509e-01 6.5049486440385891e+01 6.2055753270627335e+01 7.4932695015849532e+01 0 0 0
1987 4 1.7894429598356956e-01 6.9696679207813347e+01 5.8020471125758498e+01 7.7752836265507796e+01 0 0 0
2998 2 -1.8415648059100212e-01 7.1529215171449039e+01 6.5964738663982814e+01 7.1603774196514280e+01 0 0 0
2995 2 -1.5899432763596633e-01 7.0183031763943220e+01 6.5868041734216177e+01 7.2368120390053150e+01 0 0 0
1578 2 -1.7125682216533675e-01 6.7778133869321309e+01 6.5469472404710388e+01 7.7913862621317421e+01 0 0 0
1579 4 1.5230216756648177e-01 6.5845996804483704e+01 6.5526321805630730e+01 7.6783228471925185e+01 0 0 0
1606 4 1.2038372769737950e-01 7.2582684947419153e+01 6.1368605227431516e+01 7.7729357643854058e+01 0 0 0
5759 2 4.8648543126437088e-01 7.4200328698875055e+01 6.1111820098275608e+01 7.4179933732265283e+01 0 0 0
1986 4 1.2821748619592357e-01 6.8015472087389313e+01 5.8704956253300246e+01 7.7496340369492060e+01 0 0 0
3271 4 1.9975331264158003e-01 6.5195670665610308e+01 6.9073400148045351e+01 7.9394670135629568e+01 0 0 0
1556 5 -1.2051104792427957e-01 6.4830224829949131e+01 5.6944360676363068e+01 7.4404825609492974e+01 0 0 0
5769 4 1.0884128817474668e-01 7.4134229190685744e+01 6.5797312533380975e+01 7.3561306709690911e+01 0 0 0
5764 4 1.9050171257075357e-01 7.4292748668259534e+01 6.2728735505386993e+01 7.5634685288038298e+01 0 0 0
1627 4 1.3484748575098832e-01 6.6982795194527327e+01 5.7650731156558741e+01 7.1945246618247921e+01 0 0 0
1625 4 1.1315936762156373e-01 6.6561673420778831e+01 6.0450277172597858e+01 7.1472718867769444e+01 0 0 0
1623 2 -1.9551608958310063e-01 6.7224284517776553e+01 5.8322517835095240e+01 7.1066191236865563e+01 0 0 0
2999 4 1.5415232000106638e-01 7.0365756104454832e+01 6.5614060829536612e+01 7.3480894971724084e+01 0 0 0
3002 4 1.2042958044364080e-01 7.2362911788136657e+01 6.6050483939142410e+01 7.2338776273573814e+01 0 0 0
3127 4 2.0651413377690414e-01 6.7589425093459681e+01 7.4195142190713867e+01 7.2748156914363150e+01 0 0 0
3168 2 -1.8990348369828319e-01 7.3657169171812782e+01 6.7982857390104442e+01 7.6284806511549689e+01 0 0 0
1581 2 -2.4382114375085193e-01 6.9227763441754391e+01 6.6025163839861065e+01 7.7508450014046090e+01 0 0 0
3256 5 -8.8469080223238558e-02 6.5927527226623440e+01 6.8372285467852308e+01 7.3003617264645897e+01 0 0 0
2996 4 2.1522275387907816e-01 7.0143911712911944e+01 6.8101954872519372e+01 7.2594300409176142e+01 0 0 0
2993 2 -2.6052370345713288e-01 6.9440420295127751e+01 6.7280220625495460e+01 7.2329345002118984e+01 0 0 0
2997 4 1.7714543250657169e-01 6.8495245424765258e+01 6.7339986283251562e+01 7.2988859183581468e+01 0 0 0
1586 4 1.5617504056733017e-01 6.9044133746424222e+01 6.6761458739776813e+01 7.6665387167204926e+01 0 0 0
3259 4 1.3756767440326254e-01 6.7897257969550594e+01 6.8496040138852265e+01 7.4784093654554667e+01 0 0 0
3269 4 1.3774123372898175e-01 6.7280759624449203e+01 6.8549732759454571e+01 7.7953781738348411e+01 0 0 0
3128 4 1.3122570768949079e-01 6.7147114328725294e+01 7.3428066315943397e+01 7.4304167954629364e+01 0 0 0
3123 2 -2.0831731390644759e-01 6.8086251815214410e+01 7.3752021653800909e+01 7.3682660154044214e+01 0 0 0
7142 2 3.5724182263912951e-01 7.1247176062343769e+01 7.0401939982084585e+01 7.2101855118310169e+01 0 0 0
7141 1 -5.8790437771647575e-01 7.0405908097336479e+01 7.0016524014687008e+01 7.2967013451343988e+01 0 0 0
7143 2 -2.4324223306962456e-01 7.2418392279846643e+01 7.1012868172090620e+01 7.2820019048027248e+01 0 0 0
3120 2 -1.9300153230110775e-01 6.8933938946043710e+01 7.2573588309066011e+01 7.3213921661918420e+01 0 0 0
7145 2 -1.8220728480732423e-01 7.2192346407532995e+01 7.1030036078173438e+01 7.4318410718464293e+01 0 0 0
7146 4 1.3370719981393403e-01 7.2653689973481107e+01 7.2057943973731085e+01 7.2377284220242942e+01 0 0 0
7147 4 1.1826293455629819e-01 7.3402457633399450e+01 7.0468779112471339e+01 7.2573995326190257e+01 0 0 0
7150 4 1.7309011119128206e-01 7.1176792401406360e+01 7.1355226560820498e+01 7.4644251867550309e+01 0 0 0
3125 4 1.2635039577208876e-01 6.9988831711855440e+01 7.2928770668709561e+01 7.2956359957245439e+01 0 0 0
3119 2 4.2523951847732187e-02 6.8256612125712195e+01 7.2029062198206034e+01 7.1898430296193723e+01 0 0 0
3124 4 1.7285204027037332e-01 6.9058296822366401e+01 7.1785838082228977e+01 7.3989901021388803e+01 0 0 0
3139 4 1.4827040668713065e-01 7.1547788993018301e+01 7.2976798565458012e+01 7.6779672788874151e+01 0 0 0
7149 4 1.8150762571634405e-01 7.2127864864098186e+01 6.9949840607616125e+01 7.4678169919682091e+01 0 0 0
3143 4 1.5703092188477363e-01 7.1208812750623139e+01 7.0836089638817015e+01 7.7484962140699196e+01 0 0 0
7152 4 1.2088829685664135e-01 7.3527533717191361e+01 7.2775761993933315e+01 7.4917356625535461e+01 0 0 0
3134 2 7.1649667328293649e-03 6.8560077487168286e+01 7.2779669430031262e+01 7.6930823665309333e+01 0 0 0
3137 4 9.1401718151644509e-02 6.7870082773862862e+01 7.2951163422670874e+01 7.6015609606133140e+01 0 0 0
7148 2 2.8515109680472866e-02 7.3321070382736124e+01 7.1671445050440369e+01 7.5178320465967147e+01 0 0 0
3138 1 -5.4365856888329944e-01 6.9110280272210630e+01 7.1441688421170880e+01 7.7064263290176697e+01 0 0 0
3131 2 -9.1445119971355751e-02 6.9653904590986045e+01 7.3839048181523083e+01 7.6961640701720498e+01 0 0 0
3268 4 1.8254655491050964e-01 6.7707185808784146e+01 7.0241664757575677e+01 7.7955186691382011e+01 0 0 0
3264 2 -2.0961698717234084e-01 6.6824405789799556e+01 6.9530843450151423e+01 7.8058954871004659e+01 0 0 0
7151 1 -6.0142033270847295e-01 7.3340810268650856e+01 7.1185161308710889e+01 7.6544337111524399e+01 0 0 0
3257 2 -1.7408208461512417e-01 6.6773362491127727e+01 6.8550264258972874e+01 7.4857326819407731e+01 0 0 0
3263 4 1.5120502074232495e-01 6.7278340618805373e+01 7.0535420413551748e+01 7.5482219523115560e+01 0 0 0
3122 4 1.8268039914260048e-01 6.8752821961590968e+01 7.1010276878272720e+01 7.1795127320275796e+01 0 0 0
7154 2 4.8648705106757989e-01 7.4041588781168542e+01 7.2102194686473837e+01 7.7379269504612779e+01 0 0 0
3117 1 -5.6041657826247038e-01 6.6806114747342306e+01 7.2212698097398587e+01 7.1922928177807009e+01 0 0 0
3258 2 -1.8111422345710743e-01 6.6343952845259210e+01 6.9892975741487390e+01 7.5438779102375804e+01 0 0 0
6967 4 1.2040548694271244e-01 7.1944927705811992e+01 7.3980241921258667e+01 7.5140952655557143e+01 0 0 0
3129 3 -4.0592473794587253e-01 6.9937136299422008e+01 7.4751522097404475e+01 7.5384075125901006e+01 0 0 0
3261 2 -1.9863560459861482e-01 6.5770138532156167e+01 6.9756463024645726e+01 7.6826135340920800e+01 0 0 0
3135 2 1.1683692465969173e-01 7.0756870933807818e+01 7.3072606692176706e+01 7.7611737637166001e+01 0 0 0
3260 4 1.4860767617985110e-01 6.6484485309604409e+01 6.7759352608469285e+01 7.5543008531893307e+01 0 0 0
3141 2 9.3704040435422811e-02 7.0349403737902875e+01 7.1512264204046204e+01 7.7754949144596694e+01 0 0 0
3171 5 -1.2931143100081299e-01 7.2153903790375281e+01 6.7299946764519902e+01 7.5016414128165394e+01 0 0 0
3136 4 7.6100344861480554e-02 6.7724561184094640e+01 7.3083255962083356e+01 7.7627662967276677e+01 0 0 0
3265 4 1.1114519108611126e-01 6.5137816642111162e+01 7.0687381324790593e+01 7.7085523044337492e+01 0 0 0
3165 2 -1.3904359292163299e-01 7.3117337157857293e+01 6.7888239587614635e+01 7.7670821191624768e+01 0 0 0
7156 1 -5.6691153312105436e-01 7.4397108580161316e+01 7.3296414448097408e+01 7.7090902559116955e+01 0 0 0
6969 4 1.2755882508915911e-01 7.2137792903394356e+01 7.4625700961816463e+01 7.2900577019212179e+01 0 0 0
3262 4 1.4413746808203384e-01 6.5608874251007265e+01 7.0387162363795568e+01 7.4735782295746276e+01 0 0 0
6965 2 -1.0243332861918580e-01 7.1404982109625664e+01 7.4949723478046408e+01 7.4981782020351233e+01 0 0 0
3133 4 1.6212355165785650e-01 6.9409868164542743e+01 7.4687986113160946e+01 7.7618031070226692e+01 0 0 0
3170 4 1.7138149455733778e-01 7.2368968999770885e+01 6.8736053196937945e+01 7.7928471358062069e+01 0 0 0
7153 4 1.1261857689077569e-01 7.4286057928807566e+01 7.1560616056131664e+01 7.4557817639220133e+01 0 0 0
3169 4 1.8200454710957967e-01 7.2594241296298719e+01 6.6913171517805125e+01 7.7907612506339063e+01 0 0 0
3266 4 1.3061155831681773e-01 6.5088413166037753e+01 6.8862559135969079e+01 7.6848394747884896e+01 0 0 0
3121 4 1.3897178810400410e-01 6.8869364433803597e+01 7.2404436329323786e+01 7.1034304827148674e+01 0 0 0
3126 2 3.2348220717117698e-01 6.8796917285716631e+01 7.4871833281977572e+01 7.4359023776816898e+01 0 0 0
3315 4 9.4746176781688424e-02 6.6246727557074621e+01 7.4820235828183513e+01 7.6854648846914770e+01 0 0 0
1583 4 1.2824898488913156e-01 6.7235661430991087e+01 6.6257037726493309e+01 7.8534762412059678e+01 0 0 0
3173 4 1.5773623086567484e-01 7.4041579569528352e+01 6.9036396762325026e+01 7.6071534039193963e+01 0 0 0
1562 4 1.9131032533014058e-01 6.4909562762597616e+01 5.9530283884918390e+01 7.4433025888646796e+01 0 0 0
3162 2 5.0208092621050593e-01 7.3899443925244697e+01 6.7978407438871500e+01 8.0161573454803460e+01 0 0 0
1753 4 1.4153536526169963e-01 6.4926719660765770e+01 6.2060913030234140e+01 8.5158099641172839e+01 0 0 0
7452 4 1.5402889899470637e-01 7.3290517593598480e+01 6.3291308575031437e+01 7.8877346577160083e+01 0 0 0
5939 4 1.2137068836662653e-01 7.3723508326468533e+01 5.7099752224970366e+01 8.2379873116962486e+01 0 0 0
1718 4 1.5459458805043869e-01 6.7070890383483018e+01 6.0690748326736241e+01 7.8830899263123101e+01 0 0 0
5926 2 3.3606467914841495e-02 7.4597238417977493e+01 5.8536424398267393e+01 7.8410939728063539e+01 0 0 0
1774 2 -1.2721207705761678e-02 6.8195528078770295e+01 6.6265438922857527e+01 8.2115209426805677e+01 0 0 0
1602 4 2.6865661839800353e-01 6.9763451278116221e+01 6.3635760989318904e+01 7.8625866079032292e+01 0 0 0
1786 4 9.4771866137822250e-02 6.7501299124742573e+01 6.2833016988944010e+01 8.4925137307196863e+01 0 0 0
1582 4 1.6728593421766727e-01 6.7914458010691163e+01 6.4712649510619187e+01 7.8752644751997622e+01 0 0 0
1599 3 -4.6312674245469082e-01 6.9767800477309621e+01 6.2651053508874440e+01 7.8656181501267909e+01 0 0 0
1743 5 -1.0281145296752653e-01 6.7750022701661678e+01 5.9139137642849185e+01 8.5364711024488130e+01 0 0 0
1716 1 -6.0136338765607600e-01 6.5871860410600178e+01 6.3214941486645401e+01 8.0285156097432406e+01 0 0 0
1717 2 -1.8255522138012895e-01 6.5277114818035344e+01 5.9863827043393343e+01 7.9879671651245957e+01 0 0 0
1714 2 4.8220528491222209e-01 6.5684102553827614e+01 6.2244837651644829e+01 7.9482707205975402e+01 0 0 0
1715 2 -2.4282492258952496e-01 6.6447120162855541e+01 6.0976151990236509e+01 7.9754373880265902e+01 0 0 0
5933 2 -2.3986990526529137e-01 7.4304851970618714e+01 5.9226566646541116e+01 8.2092865873533000e+01 0 0 0
1719 4 1.6391374092248548e-01 6.7045627778354799e+01 6.1065406428160955e+01 8.0711210693599512e+01 0 0 0
1725 4 1.3653679122302070e-01 6.6244761346277954e+01 5.8059507255930249e+01 7.9314894990429764e+01 0 0 0
1594 4 1.2056623889051289e-01 7.2059853951122349e+01 6.3876529960588556e+01 8.1769444472312458e+01 0 0 0
1749 4 1.4126045899386189e-01 6.6627030896194896e+01 6.1936296478749824e+01 8.3159345863170088e+01 0 0 0
1746 5 -1.0158794275729666e-01 6.5838362663222213e+01 5.9227544382186970e+01 8.3493389360022093e+01 0 0 0
6284 5 -9.6171245041222306e-02 6.9899306143442871e+01 5.7944903435774769e+01 8.4678739579687843e+01 0 0 0
1720 2 -1.9051508304784442e-01 6.5958958885881842e+01 5.8489162722478234e+01 8.0267973975995460e+01 0 0 0
5929 1 -5.5310294391320158e-01 7.4332402035265659e+01 5.8267750644803534e+01 7.9866891948443751e+01 0 0 0
5937 4 1.4910217753078236e-01 7.3314336206869839e+01 5.9653853024970282e+01 8.2423616949638571e+01 0 0 0
1723 5 -6.7978017438680829e-02 6.7435384183921400e+01 5.8592084321801892e+01 8.1686118523078832e+01 0 0 0
1607 4 2.0430944647606661e-01 7.1361335858165432e+01 6.0559447887707947e+01 7.8483579051449169e+01 0 0 0
5942 4 1.1295618761198907e-01 7.3880357425086572e+01 5.7718422434253135e+01 8.4680835748710265e+01 0 0 0
1600 1 -5.4845767929917766e-01 7.1284030793066179e+01 6.1461551375226506e+01 8.0198070738866548e+01 0 0 0
1784 2 -7.2039802228854276e-03 6.8397056579361234e+01 6.4810802153010428e+01 8.5342355933262780e+01 0 0 0
1597 4 1.4459161128152473e-01 7.0045989420472651e+01 6.2316035967849700e+01 8.2059364067040121e+01 0 0 0
1593 2 -2.1189327550000187e-01 7.0087904441923683e+01 6.3091218850580475e+01 8.1242082693324662e+01 0 0 0
1787 4 1.2978542278677474e-01 6.9259008473811591e+01 6.4261146657721270e+01 8.4817812680767659e+01 0 0 0
1780 1 -5.0019437828202773e-01 6.6202975801311752e+01 6.4541734137551188e+01 8.4366717181549419e+01 0 0 0
1596 2 3.6815709792749379e-01 7.0510811399971232e+01 6.2445216801441383e+01 7.9910675192532423e+01 0 0 0
1598 4 1.5050810180453617e-01 6.8979623008050410e+01 6.3398937350094521e+01 8.1201357226029401e+01 0 0 0
7454 4 1.2432936065250286e-01 7.4311909435334456e+01 6.3877861704436611e+01 8.1057335826909977e+01 0 0 0
5932 2 4.9402519848272547e-01 7.4534532732590378e+01 5.9489102296929964e+01 8.0609974326965485e+01 0 0 0
1747 2 -1.7097431413110240e-01 6.5641152850558399e+01 6.1350333410221985e+01 8.3148099828945448e+01 0 0 0
1590 2 -1.8855162259408612e-01 7.1009776048368209e+01 6.4261649818129513e+01 8.1540708894425947e+01 0 0 0
1773 4 1.7363361983444020e-01 6.6273067452639324e+01 6.5124717618325320e+01 8.1974505498041808e+01 0 0 0
1587 1 -6.0611672594171118e-01 7.0101793731148504e+01 6.5398462517797668e+01 7.9505150921926429e+01 0 0 0
1595 4 1.3681420424645097e-01 7.0713776494925099e+01 6.4667666399367391e+01 8.2581092099680689e+01 0 0 0
1724 4 1.2618321173257555e-01 6.5093158465108701e+01 5.7877156073477394e+01 8.0605569499007601e+01 0 0 0
1750 4 1.7059692726032646e-01 6.5401582796513836e+01 6.1544697263578286e+01 8.2107118739254858e+01 0 0 0
1589 2 4.4094019886864781e-02 7.1040907583113096e+01 6.5536135504360487e+01 8.0570971530687828e+01 0 0 0
1592 4 1.5392744671644193e-01 7.2097586278814831e+01 6.5700757564315836e+01 8.0280767471215384e+01 0 0 0
1782 2 -1.0019633144858681e-02 6.7152123127565517e+01 6.3854044226990759e+01 8.5196477517904967e+01 0 0 0
7448 2 -2.4471968076797215e-01 7.4429281003861959e+01 6.3231425265825152e+01 7.8954824512048319e+01 0 0 0
1809 4 1.3702438747193429e-01 7.3787230429997663e+01 6.5560398172094196e+01 8.4197097605861046e+01 0 0 0
7451 4 1.8478057285485652e-01 7.4571490265146494e+01 6.2142634091630264e+01 7.9161352619536459e+01 0 0 0
3152 1 -5.5101618676550779e-01 6.8847928781872483e+01 7.0427874395756220e+01 8.1818363588157609e+01 0 0 0
1775 2 8.7139534846903705e-02 6.6621406246746460e+01 6.5913596594438374e+01 8.4001018725334163e+01 0 0 0
1776 4 1.4702517786543837e-01 6.8489535312773185e+01 6.5636922835457241e+01 8.1238654856468031e+01 0 0 0
3154 4 1.7116746708895342e-01 6.9943213975446582e+01 6.8517098792550556e+01 8.2911815057600819e+01 0 0 0
3338 2 -1.7817562352225619e-01 7.0646346032281770e+01 7.2650493445977375e+01 8.4440118025510571e+01 0 0 0
7647 4 1.4357210083717237e-01 7.4449203650053704e+01 7.1099548292411455e+01 8.5372550568326659e+01 0 0 0
3270 2 -1.8107807333361484e-01 6.6083171945551754e+01 7.0969315650989785e+01 8.0008455788165875e+01 0 0 0
3144 2 2.2347650665069008e-03 7.0019772134666013e+01 7.1475938849222260e+01 7.9291725403486168e+01 0 0 0
7164 4 1.3768704028148893e-01 7.3970577264867714e+01 7.2442141508644255e+01 8.2067926399962445e+01 0 0 0
3330 4 1.1463764426905497e-01 6.6973948767310461e+01 7.4344118370468237e+01 8.1198984118955266e+01 0 0 0
1783 4 9.3353425405493934e-02 6.7953853437323389e+01 6.6950415410689303e+01 8.5432267669220479e+01 0 0 0
3337 4 1.6250538011923313e-01 6.8137028737950331e+01 7.2950486364163297e+01 8.4837182565988542e+01 0 0 0
1584 2 4.9033490680046060e-01 6.9799373787405969e+01 6.6598690342390000e+01 7.8776060527552460e+01 0 0 0
3333 2 -2.5096233760169900e-01 6.8564355677235071e+01 7.3904938163931774e+01 8.5205580576788250e+01 0 0 0
7155 2 -2.3835123194869845e-01 7.4121037141079526e+01 7.1793428270396490e+01 7.8860845129214468e+01 0 0 0
3158 4 1.8487714885428821e-01 7.1837197425388382e+01 6.8000247605776551e+01 8.1087847542369573e+01 0 0 0
3272 4 1.6778671767447148e-01 6.6727308288516610e+01 6.8900910249052771e+01 8.0111021511668653e+01 0 0 0
1779 4 9.4219997871098651e-02 6.6081351256435880e+01 6.6824862351019675e+01 8.4373271657197179e+01 0 0 0
3163 2 -2.4529115642831800e-01 7.4293123379706131e+01 6.8012525834515017e+01 7.8628693683298167e+01 0 0 0
5935 2 -1.7240948376435664e-01 7.4580977135642925e+01 5.7742234436906770e+01 8.2602061457290532e+01 0 0 0
3159 1 -6.1931102319836129e-01 7.3889926937841182e+01 6.9339009786470157e+01 8.0571787397160023e+01 0 0 0
7157 2 -1.5223827660840270e-01 7.4275012319227272e+01 7.2977934605346178e+01 7.9853149256594662e+01 0 0 0
3274 4 1.7277520968515866e-01 6.6675644151192373e+01 7.0984025680112779e+01 8.1001788439392030e+01 0 0 0
3149 2 3.7419078281132329e-01 6.9989949232036437e+01 7.0061342198893229e+01 8.1407703906448432e+01 0 0 0
1591 4 1.1542394749869450e-01 7.1005132135242093e+01 6.6379455035594901e+01 8.1334118818424869e+01 0 0 0
7161 4 1.9732922504145006e-01 7.3335210783693157e+01 7.3584987740561886e+01 7.9916303431609364e+01 0 0 0
1799 1 -5.9960390151495990e-01 7.2973171555630017e+01 6.8327998519218980e+01 8.4797145280628101e+01 0 0 0
1778 1 -5.2537831618207365e-01 6.8969148190234804e+01 6.6210273269222085e+01 8.3425619095151674e+01 0 0 0
3151 2 -2.4495356392742262e-01 7.0695445411387482e+01 6.9295623887358502e+01 8.2526377751740299e+01 0 0 0
7158 4 1.9176540536760875e-01 7.3234912404808057e+01 7.1067660943564320e+01 7.9202402901374072e+01 0 0 0
1772 4 2.1518322485210659e-01 6.5523527665993797e+01 6.7720853875284149e+01 8.2499448018895706e+01 0 0 0
3342 4 1.6686647114092271e-01 6.9879854321389658e+01 7.2478130683988155e+01 8.3649941000898679e+01 0 0 0
1797 4 1.7331780683101561e-01 7.1461470221217851e+01 6.6495659442422706e+01 8.4862883640045467e+01 0 0 0
3150 4 3.2156750239970855e-01 7.0308209061628816e+01 6.9499533863247464e+01 7.9393123149687270e+01 0 0 0
3140 1 -5.1265221860661980e-01 7.1128145627266548e+01 7.3569139502531854e+01 7.8963594373540616e+01 0 0 0
3153 2 -1.9243286149892824e-01 7.1957253935249327e+01 6.8572451626784087e+01 8.2057739639042055e+01 0 0 0
1801 4 9.0421320435580058e-02 7.0962136656792509e+01 6.9319359831032003e+01 8.5160411418424104e+01 0 0 0
1769 3 -4.6050263960287052e-01 6.5879532741437359e+01 6.7161883843409043e+01 8.1767262746985011e+01 0 0 0
1777 4 1.5472623425487997e-01 6.8149260832015713e+01 6.7212950482505249e+01 8.1482744285421504e+01 0 0 0
1588 1 -6.1434681255386980e-01 7.0043161133640425e+01 6.7834638550945670e+01 7.8981386704224818e+01 0 0 0
3280 4 1.3096747776652617e-01 6.5453072312033356e+01 7.4207074012721108e+01 7.9252992798381285e+01 0 0 0
3142 2 6.1366646491984285e-03 7.0469504641528246e+01 7.2804446149278164e+01 7.9989104604458689e+01 0 0 0
3329 1 -5.5666483270002531e-01 6.8305551998198681e+01 7.4294690584095491e+01 8.3022881286701718e+01 0 0 0
3341 5 -1.0813400075550261e-01 7.2410453643310092e+01 7.3386572870265979e+01 8.4020967529563080e+01 0 0 0
3148 3 -4.4893425492344519e-01 7.0517772278111664e+01 7.0266169595594334e+01 8.0030907691708705e+01 0 0 0
1798 4 1.4869502187967198e-01 6.9921445345899556e+01 6.7416816701686415e+01 8.4935999877088406e+01 0 0 0
1771 2 -1.5090131764203344e-02 6.6681330333554570e+01 6.6071983454490407e+01 8.2440753838485207e+01 0 0 0
3343 4 1.2275082439081529e-01 7.0601570587597152e+01 7.1575685897238060e+01 8.4823606733243238e+01 0 0 0
3156 2 5.5669715427939005e-02 7.3191432774784047e+01 6.9527639585028055e+01 8.1781267735061533e+01 0 0 0
3161 4 1.0801952932588182e-01 7.2800694959381616e+01 7.0548504987421538e+01 8.1954218833024228e+01 0 0 0
3157 4 1.8642634415972376e-01 7.2210413989658051e+01 6.7827586320926386e+01 8.2892834961547592e+01 0 0 0
3267 2 -1.8938044941780285e-01 6.6182155536178982e+01 6.9575801213767221e+01 7.9431104371217501e+01 0 0 0
1781 2 8.0862556634549415e-02 6.8019310814821495e+01 6.6110720047022710e+01 8.4590924958406575e+01 0 0 0
3146 4 1.2245316555052466e-01 6.9590562146841393e+01 7.3221776253075419e+01 8.0592797088473674e+01 0 0 0
3147 4 1.5121665559214167e-01 6.8911196147643594e+01 7.1356363998280628e+01 7.9317149583689982e+01 0 0 0
3275 4 1.1189115491508231e-01 6.6708621018876627e+01 7.1730485747839126e+01 7.9506206117201870e+01 0 0 0
3160 4 1.3619693152233814e-01 7.3731838822568591e+01 6.9511595248499091e+01 8.2758341498519272e+01 0 0 0
3155 4 1.2662045167084840e-01 7.1024167848595354e+01 7.0023622829211092e+01 8.3363700339078989e+01 0 0 0
3145 4 1.4030366793963003e-01 7.1071590833677931e+01 7.2507025661368772e+01 8.0887607556055030e+01 0 0 0
3164 1 -6.1297958285741416e-01 7.3868641114860253e+01 6.6882400669297411e+01 8.0778902236848694e+01 0 0 0
5913 4 1.0563332637615980e-01 7.4698738889397987e+01 5.7005566268851794e+01 7.4138474356880678e+01 0 0 0
3172 4 1.4990232171264478e-01 7.4570353010897321e+01 6.7319280087732920e+01 7.6230157992889232e+01 0 0 0
3326 2 2.6852579477565284e-02 6.7447067423213610e+01 7.4969631992452932e+01 8.2034508470274133e+01 0 0 0
1817 4 1.4618365856596285e-01 7.1616458403041179e+01 5.6863382390889392e+01 8.2241264798838969e+01 0 0 0
1796 2 1.7809607325537491e-02 7.1693378500270867e+01 6.8562661902402468e+01 8.5509103195028473e+01 0 0 0
1793 2 -1.8420962906603158e-01 7.0913003416551291e+01 6.7263390729534962e+01 8.5478660590025868e+01 0 0 0
6285 2 -1.9480602971924516e-01 7.0732912172970742e+01 5.7498274958360597e+01 8.6501828855616722e+01 0 0 0
6288 4 1.2595594188254033e-01 7.0039942810607997e+01 5.7044731521740523e+01 8.7273026440972302e+01 0 0 0
6286 2 -2.0398940335517979e-01 7.1165259272677233e+01 5.8870335165169024e+01 8.7123143096269970e+01 0 0 0
2156 2 -1.9236345383641415e-01 7.0089842413678042e+01 5.9394465063896760e+01 8.8210632172096240e+01 0 0 0
6289 4 1.2822298691143943e-01 7.2187406064293285e+01 5.8822282740608422e+01 8.7518470876890504e+01 0 0 0
6290 4 1.2674943998009164e-01 7.1299841146104342e+01 5.9592770066285631e+01 8.6278753868556990e+01 0 0 0
2160 4 1.6828509742255021e-01 6.9808479511483796e+01 5.8658970563037023e+01 8.9010322234128239e+01 0 0 0
2155 2 -1.5994712318093210e-01 7.0593085399349206e+01 6.0726755625043637e+01 8.8876047814994465e+01 0 0 0
6272 2 4.8342431287530246e-01 7.4086914326380736e+01 6.1101840924875198e+01 9.0440476113108417e+01 0 0 0
2159 4 1.4626933838584691e-01 6.9100056949620893e+01 5.9620933345089632e+01 8.7697368314705528e+01 0 0 0
2158 4 1.3674083843357590e-01 7.1707071727811808e+01 6.0724823952008322e+01 8.8688752363785824e+01 0 0 0
2157 4 1.2675008695003270e-01 7.0405323140334247e+01 6.1699871486955097e+01 8.8179081604587878e+01 0 0 0
1744 4 1.5060955411901875e-01 6.7335714200275731e+01 5.7689432096065694e+01 8.7628886760737942e+01 0 0 0
1740 2 -1.8335068870045743e-01 6.7039080050487300e+01 5.7655443027693501e+01 8.6548491167582526e+01 0 0 0
2154 5 -1.0259939954521936e-01 7.0056470113093013e+01 6.0692041096584745e+01 9.0767814345824760e+01 0 0 0
1943 4 1.5475947271249299e-01 6.7225018796846200e+01 5.7537700942637628e+01 9.1866947465014889e+01 0 0 0
6276 4 1.5253851019017264e-01 7.3273652989741777e+01 6.2851893149146477e+01 8.9448846237266551e+01 0 0 0
2151 5 -9.2205106208333623e-02 7.1060446616531749e+01 6.3226402020186470e+01 9.1384625653121404e+01 0 0 0
1792 1 -5.4512026926245494e-01 7.1262531682987742e+01 6.4643091949523566e+01 8.7413132976843968e+01 0 0 0
2321 5 -7.2696562558757824e-02 6.7891124877890761e+01 6.1442273530349773e+01 9.0520478861481507e+01 0 0 0
2152 4 1.6016051267974490e-01 6.9456038006121517e+01 6.4007222157549322e+01 8.9389767801442275e+01 0 0 0
2153 4 1.7381404974423981e-01 6.8577112541222661e+01 6.4370988311940195e+01 9.0913858125064834e+01 0 0 0
2148 2 -1.7496292933383806e-01 6.9612339940627663e+01 6.4306627383071145e+01 9.0416530176310260e+01 0 0 0
1789 2 3.4078926128867126e-01 7.0256061795107939e+01 6.5347066194927564e+01 8.6965403752968214e+01 0 0 0
1790 4 2.0115599336908108e-01 6.8889879940693916e+01 6.3876635800832034e+01 8.6997094965123850e+01 0 0 0
1788 3 -4.5727685651175970e-01 6.8869156998242758e+01 6.4932208759732831e+01 8.6770244319007773e+01 0 0 0
6267 4 1.7711751379102816e-01 7.2303916160901778e+01 5.9508249474671025e+01 9.1750317320116025e+01 0 0 0
6269 1 -5.5373421283099655e-01 7.4180022435747759e+01 6.1537117347810849e+01 9.1791821803009626e+01 0 0 0
1949 4 1.0216712375006563e-01 6.5788931872445886e+01 5.7250954767754529e+01 8.9245282009591804e+01 0 0 0