LAMMPS data file via write_data, version 23 Jun 2022, timestep = 500000

8160 atoms
5 atom types

70.71538689048442 98.68461310946383 xlo xhi
26.079877384325016 123.9201226156329 ylo yhi
81.95707774264244 118.04292225737228 zlo zhi

Masses

1 15.999
2 12.011
3 14.007
4 1.008
5 32.06

Atoms # charge/kk

1711 1 -6.0994982021761690e-01 7.7287238171877220e+01 2.6280972589599358e+01 8.5343150084755806e+01 0 0 0
1707 4 1.6057220395356553e-01 7.5078130113981402e+01 2.8211401729706274e+01 8.3740711228540022e+01 0 0 0
1709 4 1.9496781316558076e-01 7.6949591397779770e+01 2.8754891705657545e+01 8.6265359963335953e+01 0 0 0
1705 2 -2.0063835967547730e-01 7.6815875910689954e+01 2.8674307389562362e+01 8.5176425932957528e+01 0 0 0
1703 2 -2.4030046786019357e-01 7.5334962729499011e+01 2.8598912490835051e+01 8.4750474967610430e+01 0 0 0
1702 2 4.2611230786881160e-01 7.4628429327571411e+01 2.7762788601947943e+01 8.5820022618196546e+01 0 0 0
1704 3 -4.2767711153072741e-01 7.4662090032805352e+01 2.6288253638506692e+01 8.5962328602332406e+01 0 0 0
1701 1 -5.6359628597535072e-01 7.4069214336448880e+01 2.8516546934338720e+01 8.6673929832685531e+01 0 0 0
1706 4 1.5973099687457962e-01 7.4949884085651064e+01 2.9627686984900713e+01 8.4796745315760333e+01 0 0 0
1757 1 -5.7963892860964095e-01 7.6584313794773223e+01 2.8939019265065404e+01 8.8719415486865316e+01 0 0 0
1764 4 1.8560040109040388e-01 7.5526911588292421e+01 3.0633660551012117e+01 8.7190426771786633e+01 0 0 0
1760 2 -1.9916863522268027e-01 7.5656529466307518e+01 3.1244687971076274e+01 8.8204642653071616e+01 0 0 0
1765 4 1.1407048236256213e-01 7.4648694024504920e+01 3.1770614178709657e+01 8.8339105522971337e+01 0 0 0
1922 4 1.4735645565503144e-01 8.0108005248097470e+01 2.8515695373298808e+01 9.4363503588050094e+01 0 0 0
1574 4 1.3286074347075591e-01 7.4801067639049208e+01 3.3881735475333656e+01 8.5210904763729346e+01 0 0 0
1570 2 -1.8624822636754054e-01 7.5635902519911667e+01 3.4356697832363075e+01 8.4640151088623284e+01 0 0 0
1827 4 1.7365891058339358e-01 7.5560171197135190e+01 2.7054447975355501e+01 8.8757835681810946e+01 0 0 0
1824 2 -4.6019647428653763e-04 7.4692413506137882e+01 2.6425718998210353e+01 8.8528867670996632e+01 0 0 0
1573 5 -9.0940814329089945e-02 7.5409527256497526e+01 3.6348633498517692e+01 8.4495023319093050e+01 0 0 0
1580 4 1.7270442455469109e-01 7.2544858124275308e+01 3.7282091623020989e+01 8.6472063593599898e+01 0 0 0
1826 4 1.9164094093920966e-01 7.4014978141255895e+01 2.7262910551186128e+01 8.8332920633323297e+01 0 0 0
1759 2 5.4954724516767389e-02 7.6124734742931849e+01 3.0180501322562034e+01 8.9264906701017594e+01 0 0 0
1567 2 -1.8102261895548508e-01 7.5763833271671700e+01 3.3768052817066028e+01 8.3242940507050690e+01 0 0 0
1575 4 1.8084482640581082e-01 7.6537901806338240e+01 3.4084697362621519e+01 8.5200775476626461e+01 0 0 0
1576 5 -9.4562461509174869e-02 7.5283934187882011e+01 3.6883362359811699e+01 8.6568834004784591e+01 0 0 0
1655 1 -4.5836656096118672e-01 7.2113581597627743e+01 2.9771691397778913e+01 8.2626285983363388e+01 0 0 0
1713 4 9.5389929991361574e-02 7.7522150323984746e+01 2.7548080234644701e+01 8.3437319543135018e+01 0 0 0
2007 4 2.6578656930871519e-01 7.2688593955350413e+01 2.7022789360031737e+01 9.0364018540143420e+01 0 0 0
2012 4 1.5332897940586476e-01 7.2051964065613021e+01 2.9647855041097859e+01 8.8546749601390005e+01 0 0 0
1564 2 -1.8451110895380002e-01 7.6845777282625306e+01 3.2684591264955046e+01 8.3112942325254409e+01 0 0 0
1569 4 1.6115219302928124e-01 7.6913552179735106e+01 3.1867065414500093e+01 8.3972568314866194e+01 0 0 0
1653 4 1.7892856582759326e-01 7.1511676929246761e+01 2.7684942844568990e+01 8.2913709664056370e+01 0 0 0
1651 2 6.0597149549238630e-03 7.1505365322960060e+01 2.8526040426584640e+01 8.2203921434934358e+01 0 0 0
5654 4 1.8453323528007684e-01 7.2011862053530862e+01 2.7787346168420317e+01 8.6879412949951060e+01 1 0 0
1677 4 1.5544700574660250e-01 7.2033406960419171e+01 3.6726773157126388e+01 8.4098625447504489e+01 0 0 0
2018 4 1.1111781914756375e-01 7.2841894372712915e+01 3.2090894627905158e+01 8.9772658851376335e+01 0 0 0
2008 2 -2.5320352112401839e-01 7.1196420140447515e+01 2.9604052150854542e+01 8.9245925973558400e+01 0 0 0
2026 4 1.6270010414684358e-01 7.2362771698160955e+01 3.7158414881220097e+01 9.0520210392755843e+01 0 0 0
1672 4 1.3487651971524481e-01 7.2432970809690872e+01 3.4531456764999419e+01 8.3305043265135538e+01 0 0 0
5655 4 1.9432997946742667e-01 7.1758183093362561e+01 2.7604449962308141e+01 8.5152163171389276e+01 1 0 0
1763 2 -2.4782528004116980e-01 7.6738330825015609e+01 3.2250530577144922e+01 8.7879305861390080e+01 0 0 0
1767 4 1.5380384347104728e-01 7.6298327819976436e+01 3.3078510961264016e+01 8.7260336216693688e+01 0 0 0
1577 2 -1.5768834619390446e-01 7.3528732409083773e+01 3.7854317712969085e+01 8.6438459826684877e+01 0 0 0
1762 4 1.0324532219949975e-01 7.5268740304470327e+01 3.0198115736773961e+01 8.9979666767512796e+01 0 0 0
1905 4 1.0850945540995059e-01 7.7366240963188787e+01 3.5497788529920236e+01 9.0029547902432782e+01 0 0 0
2006 2 3.6286402896471059e-01 7.1173554586419172e+01 2.8299141364753226e+01 9.0064155271212670e+01 0 0 0
1761 4 1.2164011366204097e-01 7.6804676595614211e+01 3.0728557542282982e+01 8.9966354289637920e+01 0 0 0
1673 2 4.1245037694923069e-02 7.1269489892188744e+01 3.7088628441960573e+01 8.3292089490120574e+01 0 0 0
5650 2 -1.6900528817122759e-01 7.1189428574556956e+01 2.7525709863523346e+01 8.6129827785749256e+01 1 0 0
2013 2 2.3787975914611296e-02 7.1739384650631607e+01 3.2161611123526185e+01 8.9567478410419682e+01 0 0 0
2021 1 -5.5061515008400608e-01 7.2935765172369031e+01 3.4676803627779634e+01 8.9763081256105508e+01 0 0 0
709 4 1.3987438141978970e-01 8.0333128791087717e+01 2.6157921038921540e+01 9.9837426313200837e+01 0 0 0
2016 1 -5.7662422502542532e-01 7.0935670736301788e+01 3.3324507761430901e+01 8.9976378558310302e+01 0 0 0
2010 2 -2.0218891841110542e-01 7.1157067241185572e+01 3.0805976674575763e+01 9.0188161806064088e+01 0 0 0
2019 2 4.7987527432228588e-01 7.1671262210788029e+01 3.4523000956895032e+01 8.9921043458225881e+01 0 0 0
2022 2 -1.4402014179846795e-01 7.1231595447584880e+01 3.6997072279091242e+01 9.0327624914198694e+01 0 0 0
2017 4 1.1913869275524012e-01 7.1885542020065841e+01 3.2000605263230355e+01 8.8483844676439332e+01 0 0 0
1571 4 1.3155007402098312e-01 7.5930290043549789e+01 3.4657729663110196e+01 8.2504430565429757e+01 0 0 0
1768 4 1.1315537924085829e-01 7.7140218928014320e+01 3.2783342543545629e+01 8.8825209185579638e+01 0 0 0
1900 4 1.4604629564402799e-01 7.5089069158072832e+01 3.6451317155036072e+01 9.1040383505980600e+01 0 0 0
2027 4 1.4794802504464125e-01 7.1189231739850797e+01 3.7164783857387121e+01 8.9227086178409721e+01 0 0 0
1670 2 -1.5651773667056171e-01 7.1019859439535452e+01 3.5887904501782309e+01 8.2301252861264445e+01 0 0 0
1676 1 -5.7420474842311531e-01 7.1489829050222880e+01 3.8273222094278523e+01 8.2548579080394632e+01 0 0 0
1710 4 1.0365724959850890e-01 7.7178449183080559e+01 2.9711274525374854e+01 8.4853064694035481e+01 0 0 0
1668 2 -2.3157645858083892e-01 7.2209070442442226e+01 3.4962475145119356e+01 8.2261210496751247e+01 0 0 0
1572 4 1.3199900399895001e-01 7.4798376844439417e+01 3.3239654506748991e+01 8.2912824557005877e+01 0 0 0
1708 2 3.6624200946165045e-02 7.7640766622397820e+01 2.7482209399450873e+01 8.4565602819392666e+01 0 0 0
1903 4 1.0948999733131237e-01 7.7441747994955534e+01 3.8010724813122557e+01 9.0435704386576390e+01 0 0 0
1748 2 -1.6558987516291723e-01 7.7837224304656559e+01 2.6180066131335323e+01 8.9786567012284948e+01 0 0 0
1756 4 1.9244977367068239e-01 7.7879394314578519e+01 2.6990227635881130e+01 8.7645848512722608e+01 0 0 0
2020 2 -2.3165012438688673e-01 7.0754200544832898e+01 3.5571299383900715e+01 9.0597372184184053e+01 0 0 0
1555 4 2.0320643183307691e-01 7.9485362596042592e+01 2.6404631202362740e+01 8.2241854972826985e+01 0 0 0
1562 4 1.0035741814217893e-01 7.6987329161272640e+01 2.9980261100053994e+01 8.2521758602754673e+01 0 0 0
2005 3 -4.6741547969268721e-01 7.2227257388710413e+01 2.7716669810073821e+01 9.0934967479749957e+01 0 0 0
1532 2 3.4852377947994856e-01 7.3646454611747941e+01 2.6453987490272713e+01 8.2372850668794939e+01 0 0 0
1671 4 1.4527401585492261e-01 7.3151077651045696e+01 3.5547143581579817e+01 8.2075019417215785e+01 0 0 0
1899 4 1.2087947949595523e-01 7.5244664031661628e+01 3.8046672058264242e+01 9.0414580513795542e+01 0 0 0
2073 4 1.2828902173653070e-01 7.8855696948214273e+01 3.7065472226776464e+01 9.6440603272918707e+01 0 0 0
1531 1 -5.4846098961177614e-01 7.3341103716991014e+01 2.6808178650701464e+01 8.3564710100936921e+01 0 0 0
1568 4 1.3717982685690802e-01 7.7883313337194963e+01 3.3118026101134198e+01 8.3229539609214484e+01 0 0 0
1770 1 -6.0038264918304407e-01 7.7814053848594824e+01 3.2272185995136155e+01 8.5825216685565280e+01 0 0 0
1807 4 1.5505842535027389e-01 8.4282069350835627e+01 3.1815601147944069e+01 8.9406425444356131e+01 0 0 0
1798 4 2.1096895306938510e-01 8.4406608638922464e+01 3.1037164293377238e+01 8.5580651998730460e+01 0 0 0
1766 2 3.8705306470420958e-01 7.7892325051014751e+01 3.1725981522516637e+01 8.6995929830741076e+01 0 0 0
1754 2 5.0387337587216574e-01 7.7862928685920849e+01 2.8586541708399899e+01 8.9134370884146534e+01 0 0 0
1751 2 -2.4914690377919368e-01 7.8291728705623854e+01 2.7235897808616158e+01 8.8630563959636149e+01 0 0 0
1712 4 1.4511113279769808e-01 7.8700278679994739e+01 2.7770785394784824e+01 8.4528509332046141e+01 0 0 0
1755 4 2.0163266626993312e-01 7.9419169870521827e+01 2.7225457987685964e+01 8.8486369708343005e+01 0 0 0
1772 4 2.7906828061026340e-01 7.8817170478568300e+01 3.0560406223217850e+01 8.8399308780990467e+01 0 0 0
1769 3 -4.8254743254384969e-01 7.8988518496548750e+01 3.0992553072993090e+01 8.7486908198348388e+01 0 0 0
1773 4 1.4084515309339729e-01 7.9084387987562408e+01 2.9717946869240965e+01 8.5795682679950232e+01 0 0 0
1777 4 1.5445974151883504e-01 8.0449649929255514e+01 3.2264024096398614e+01 8.5694021022322048e+01 0 0 0
1776 4 1.0916429641713979e-01 8.0202823163480573e+01 3.1235570487268333e+01 8.4538772923098321e+01 0 0 0
1774 2 -1.9174561371395951e-03 8.0703054330162516e+01 3.1189888621432178e+01 8.5554348041881397e+01 0 0 0
1771 2 2.4321511463417926e-02 7.9862005894895006e+01 3.0229354328785107e+01 8.6464977815426010e+01 0 0 0
1779 4 1.3183071110885253e-01 8.0823173601890247e+01 2.9188235787009756e+01 8.8133809736059433e+01 0 0 0
1775 2 6.3623294558025872e-02 8.0823100471022613e+01 2.9127845769311875e+01 8.6993088233582412e+01 0 0 0
1778 1 -4.8457372560686579e-01 8.2156473322875314e+01 3.0745057594612135e+01 8.5647155438691954e+01 0 0 0
1787 4 1.6225887578880110e-01 8.3154379821418615e+01 2.8659672333230503e+01 8.4596322435326002e+01 0 0 0
1781 2 1.0347391388974678e-01 8.2210345375812679e+01 2.9607122711095990e+01 8.6515192511874446e+01 0 0 0
1784 2 -8.4800549346908238e-03 8.2787145893019400e+01 2.8408267655196514e+01 8.5632070984508530e+01 0 0 0
1783 4 1.1199752688079792e-01 8.2778604847836803e+01 2.9656131771222473e+01 8.7511466952384112e+01 0 0 0
1782 2 -4.7119308547931048e-03 8.1671286007617454e+01 2.7380383255830829e+01 8.5533113615237994e+01 0 0 0
1786 4 1.4204869015365432e-01 8.1425816609616930e+01 2.7165022232766088e+01 8.4462384428328235e+01 0 0 0
1780 1 -4.7988105201683862e-01 8.0502883033150468e+01 2.7840289574936325e+01 8.6314487419388470e+01 0 0 0
1785 4 1.4973687639646652e-01 8.2120626059780790e+01 2.6373014674015067e+01 8.5714444985900172e+01 0 0 0
1743 5 -1.1603444847317927e-01 8.1223329942364330e+01 2.6466142980205802e+01 9.0328937754412166e+01 0 0 0
6290 4 1.5011495800841276e-01 8.0751161603585231e+01 3.1203161236972974e+01 8.9461082393626512e+01 0 0 0
6289 4 1.3476296485196032e-01 8.2456296941194367e+01 3.1167726254156872e+01 9.0050706574198813e+01 0 0 0
2158 4 1.3366504179742392e-01 8.1881849487219938e+01 3.3615177645612249e+01 8.9652426147282483e+01 0 0 0
2157 4 1.0998845523579476e-01 8.0385859973302971e+01 3.4130342862674318e+01 9.0234928311548998e+01 0 0 0
6286 2 -1.9020508443834558e-01 8.1389505724640486e+01 3.1179712042396456e+01 9.0370285443173330e+01 0 0 0
1560 4 1.1514566810386935e-01 7.9225208413785282e+01 3.0418809329583627e+01 8.2975082189042894e+01 0 0 0
2152 4 1.2520701540703716e-01 8.0425933515227612e+01 3.7499739343855488e+01 9.0821633386668310e+01 0 0 0
1758 1 -6.4694744166711216e-01 7.8764534441158673e+01 2.9228647010438099e+01 8.9814651497709605e+01 0 0 0
2155 2 -1.9938013461071746e-01 8.1338270100452036e+01 3.3744345091701227e+01 9.0600052170181343e+01 0 0 0
6288 4 2.3908220992863904e-01 8.0138984615583951e+01 2.9330168547983003e+01 9.0745587683578478e+01 0 0 0
1788 3 -4.2498526176297363e-01 8.4043527135379733e+01 2.7782539213200550e+01 8.6210230706890499e+01 0 0 0
1790 4 2.1328513101286989e-01 8.3960987750076356e+01 2.7919906969619490e+01 8.7281015402198278e+01 0 0 0
1559 4 1.2651391581960650e-01 7.9103339723508128e+01 3.1942858379641702e+01 8.1963790496731775e+01 0 0 0
1753 4 1.5958091174186720e-01 7.6723183106614030e+01 2.6244985871858535e+01 8.9973956102409815e+01 0 0 0
2151 5 -1.1674049499303654e-01 8.2987767330916796e+01 3.6584993487332419e+01 9.0572356112767636e+01 0 0 0
1752 4 1.4380990580358713e-01 7.8307843110096144e+01 2.6293927990647330e+01 9.0770795792916957e+01 0 0 0
6284 5 -1.1817099534334195e-01 8.2683059961900994e+01 2.8583658110025979e+01 9.0656158024082515e+01 0 0 0
2170 1 -4.4791619439439589e-01 7.4522787832186680e+01 2.6297917694871888e+01 9.8920009794678279e+01 0 0 0
713 4 1.2646005463344256e-01 8.0066164848865554e+01 2.8366869270901720e+01 9.9864120665145947e+01 0 0 0
1880 4 1.8202669663561399e-01 7.5320756670339250e+01 2.6139983522349805e+01 9.4616964434153005e+01 0 0 0
1995 1 -5.0035994649253179e-01 7.2887599035791567e+01 2.6466410658450641e+01 9.4343996909118189e+01 0 0 0
1901 2 -1.9974725308077199e-01 7.7633818538484292e+01 3.5920822585596092e+01 9.1063043572287924e+01 0 0 0
1898 2 -1.8234257191292383e-01 7.7098615638305986e+01 3.7336752227061041e+01 9.1267905209590836e+01 0 0 0
1911 4 1.1148684775996169e-01 7.7574022609711889e+01 3.2887460696768891e+01 9.2055819032071483e+01 0 0 0
2075 4 1.4568954848068613e-01 7.6625806280919576e+01 3.8001830384941869e+01 9.5094493604542933e+01 0 0 0
2014 4 1.2928669460163875e-01 7.1785598039989054e+01 3.0635042710883685e+01 9.1111178516500672e+01 0 0 0
2004 4 1.5138725122829175e-01 7.1030100883173404e+01 2.7291970578424280e+01 9.2708011021426771e+01 0 0 0
2203 4 1.2355967944330835e-01 7.1761987643130880e+01 3.7235408177273641e+01 9.5675914852176163e+01 0 0 0
2056 1 -6.2290553792894454e-01 7.1055287957933373e+01 3.3958260653429782e+01 9.9774517145631421e+01 0 0 0
1897 2 -1.7311166783647433e-01 7.5600787316822164e+01 3.7437915541047374e+01 9.1286511552420819e+01 0 0 0
1896 5 -1.0659234426987230e-01 7.5075702450223261e+01 3.8210724244011729e+01 9.3010071760240677e+01 0 0 0
2161 2 -2.0978472229717115e-02 7.2339479188403615e+01 2.7328333753668666e+01 9.8856266630382578e+01 0 0 0
2201 5 -9.6911570067697989e-02 7.3084327342428111e+01 3.6889184227988387e+01 9.3192363047997176e+01 0 0 0
2071 2 -1.9338501498746333e-01 7.6695112337818543e+01 3.7511958571464824e+01 9.6063706450975147e+01 0 0 0
2076 4 1.1291379756654593e-01 7.5730663678830481e+01 3.6910723836311838e+01 9.6051569121524039e+01 0 0 0
2054 2 4.8842788404894671e-01 7.2293668145076722e+01 3.3687358728502964e+01 9.9856992276861689e+01 0 0 0
2199 4 1.0981945767909594e-01 7.2124084580419293e+01 3.4971459077632396e+01 9.6056861792570018e+01 0 0 0
1895 4 1.2896337576392855e-01 7.2362883285312037e+01 3.0713969929856358e+01 9.3042318435252952e+01 0 0 0
1894 4 1.6672302354764748e-01 7.2393520089435626e+01 3.1578265637545584e+01 9.4493838025861194e+01 0 0 0
1890 2 -1.7135506624470725e-01 7.2348004520438465e+01 3.0500223522370121e+01 9.4150026967108431e+01 0 0 0
1889 4 1.6839774340942876e-01 7.4018924042422029e+01 2.8995589477616317e+01 9.2449442261094021e+01 0 0 0
1887 2 -1.2189254214113976e-01 7.3616284105616089e+01 2.9671065745169493e+01 9.4499568513474884e+01 0 0 0
1892 4 2.0754592902187297e-01 7.3367546569189017e+01 2.8690032574505789e+01 9.5084984192518959e+01 0 0 0
1886 1 -6.4010305756693997e-01 7.6280927052454842e+01 2.9201029145353942e+01 9.4905195469219237e+01 0 0 0
1891 4 2.0449305789072447e-01 7.4207866895570064e+01 3.0202310247295184e+01 9.5316156341806277e+01 0 0 0
1888 4 1.5425400630483121e-01 7.4692620733183418e+01 3.0511080487946501e+01 9.2809695418303818e+01 0 0 0
2194 1 -5.7972610726419427e-01 7.4456296083873966e+01 3.2624483193949075e+01 9.4492410366527025e+01 0 0 0
1885 2 -2.4094487026702296e-01 7.4533863415176654e+01 2.9512438150520065e+01 9.3294939160224587e+01 0 0 0
1878 2 2.2120719724421034e-02 7.7036709461516935e+01 2.6713330110415804e+01 9.3310601966933049e+01 0 0 0
1881 1 -5.6764928208804322e-01 7.6080431766749953e+01 2.7749623469391640e+01 9.2889828795735781e+01 0 0 0
1884 2 5.0228278767571088e-01 7.5858686186969322e+01 2.8843354875753722e+01 9.3735958650854371e+01 0 0 0
2168 1 -4.8298042917400241e-01 7.3230288993576153e+01 2.9168072451203475e+01 9.7483127291540299e+01 0 0 0
2171 2 7.8424720677177942e-02 7.4315839317208869e+01 2.8736610030797756e+01 9.8413022496716763e+01 0 0 0
2191 4 1.3482085252865875e-01 7.6251597784601671e+01 3.1883783192463063e+01 9.6384873055620830e+01 0 0 0
2190 4 1.5393726508529021e-01 7.4707373683013259e+01 3.1433032981913055e+01 9.7222889339085683e+01 0 0 0
2177 4 1.7219809389562932e-01 7.5325239109371367e+01 2.8038491359548935e+01 9.6458470214450017e+01 0 0 0
2174 2 1.1647788653299311e-02 7.5473182789564348e+01 2.8117714769645495e+01 9.7610329101943734e+01 0 0 0
2179 2 3.7062444727799904e-01 7.6923564077727718e+01 2.9955735099708647e+01 9.8749955213328889e+01 0 0 0
2183 2 -1.9567522601186843e-01 7.6213072741340454e+01 3.2340879079355425e+01 9.8508697780337357e+01 0 0 0
2187 4 1.6442402586085988e-01 7.6565381195829076e+01 3.3407713095632502e+01 9.8635805720728513e+01 0 0 0
2178 3 -4.7422412089812549e-01 7.6774348761595704e+01 2.8964246166939038e+01 9.7715215210861118e+01 0 0 0
2181 2 -2.5475964425382758e-01 7.7400312187262358e+01 3.1358901750588721e+01 9.8494946887893065e+01 0 0 0
2186 2 4.1518848916263236e-02 7.5502596522318527e+01 3.2284235000192581e+01 9.7106124801689845e+01 0 0 0
2189 1 -6.1744317856029229e-01 7.5031437254433683e+01 3.3577707747019971e+01 9.6689767077604145e+01 0 0 0
2192 2 4.7252832633934033e-01 7.4408618304308604e+01 3.3516402275897896e+01 9.5420083689836162e+01 0 0 0
2069 4 1.5039443687733087e-01 7.6463979901614522e+01 3.5486345363309738e+01 9.7494209925710351e+01 0 0 0
2193 2 -2.3124710699310333e-01 7.3964560666579985e+01 3.4791849898436752e+01 9.4696612917877360e+01 0 0 0
2195 2 -1.8876339278162596e-01 7.3081667989669100e+01 3.5543081870853619e+01 9.5817030940792847e+01 0 0 0
2000 4 1.6376327951160971e-01 7.3901209728926588e+01 2.6703164501374086e+01 9.2409885199636008e+01 0 0 0
2197 4 1.7112878718033425e-01 7.3348007424136895e+01 3.4578661214752628e+01 9.3768793966558121e+01 0 0 0
2058 4 1.7416415115071540e-01 7.3869417931138969e+01 3.4355665730336753e+01 9.8475352114408167e+01 0 0 0
2196 4 1.4091301424758784e-01 7.4837478529995252e+01 3.5442824467812549e+01 9.4410172131199261e+01 0 0 0
1908 4 1.3092827988076025e-01 7.6073088423962076e+01 3.4777445631788034e+01 9.2089833175349852e+01 0 0 0
2200 4 1.1674151077948715e-01 7.3613873338464288e+01 3.5558038429109914e+01 9.6820416541290143e+01 0 0 0
2173 4 1.5983125364936429e-01 7.4721133112470383e+01 2.9459072384009065e+01 9.9188890472925024e+01 0 0 0
2059 4 1.3160048731748722e-01 7.2885190006731094e+01 3.5645972739345822e+01 9.9130581169862324e+01 0 0 0
2188 4 1.8274565645870489e-01 7.5526903184866569e+01 3.2141283977670319e+01 9.9364450643592292e+01 0 0 0
2055 2 -2.7031992874586852e-01 7.3401247822911785e+01 3.4705954749675989e+01 9.9423322218033775e+01 0 0 0
2198 2 -1.7667244693767592e-01 7.2800319205728982e+01 3.6979694284098521e+01 9.5282271417371788e+01 0 0 0
2001 2 -1.8002962327475440e-02 7.1750950102601905e+01 2.6785710403661408e+01 9.2039069446944666e+01 0 0 0
2064 4 1.0364057155481948e-01 7.5292929515234633e+01 3.6432192333047738e+01 9.9090908392517008e+01 0 0 0
2202 4 1.1105993497366846e-01 7.3482036248894673e+01 3.7688072433214579e+01 9.5824286066323808e+01 0 0 0
2172 2 -1.0441030887685625e-02 7.5659825838680050e+01 2.6653086993755924e+01 9.8067679074945346e+01 0 0 0
2164 2 7.2564041978159816e-03 7.2009975966421479e+01 2.8512872391276215e+01 9.7895859064489173e+01 0 0 0
2166 4 1.2771469589212425e-01 7.1229926343653531e+01 2.9029258878983622e+01 9.8563960354829305e+01 0 0 0
2167 4 1.2963385906967786e-01 7.1187158639488743e+01 2.8149663384900929e+01 9.7130592184872995e+01 0 0 0
1914 4 1.4464620822207205e-01 7.6959105841821312e+01 3.3881836618708753e+01 9.4543611837916330e+01 0 0 0
1904 2 -1.7786504312590345e-01 7.7167653831520184e+01 3.5009494076181305e+01 9.2284028435150091e+01 0 0 0
2165 2 8.3206635056219613e-02 7.3818868268894519e+01 2.7522210313860793e+01 9.9313260774208899e+01 0 0 0
2053 4 1.5059445432613117e-01 7.1861556795848557e+01 3.0679828669627724e+01 9.9618528445566383e+01 0 0 0
1811 5 -9.7658223156568510e-02 8.4067925114264597e+01 2.9115125211093140e+01 9.2736128009925892e+01 0 0 0
2068 2 -1.7472514511289722e-01 7.7850767342520925e+01 3.6505972212475072e+01 9.6203301882971246e+01 0 0 0
2175 4 1.7344870390304695e-01 7.6718909282013726e+01 2.6487133395915187e+01 9.8484639228848920e+01 0 0 0
2180 4 2.6454922252031299e-01 7.6966258859847983e+01 2.9218882036851653e+01 9.6738330794604281e+01 0 0 0
1879 4 1.4999556609018766e-01 7.6836601576615166e+01 2.6594669900875655e+01 9.5487431062966550e+01 0 0 0
1902 4 1.7231106798542006e-01 7.7651495058115344e+01 3.7847634599903643e+01 9.2158606835349715e+01 0 0 0
1915 4 1.4490889474317253e-01 7.7482385115373845e+01 3.2266923246227073e+01 9.4096320989123257e+01 0 0 0
1536 4 1.7153818295468495e-01 7.5588980924107375e+01 2.6246841476447329e+01 8.3296417144275608e+01 0 0 0
1998 2 1.0085060694734288e-01 7.2977080573342022e+01 2.6267203754716888e+01 9.2906542401667267e+01 0 0 0
1909 4 1.3173087637072534e-01 7.7057564945720102e+01 3.5706719212493859e+01 9.3149215639402030e+01 0 0 0
2163 4 1.9080105650999521e-01 7.2285185012958436e+01 2.6343099896057179e+01 9.8332670565091931e+01 0 0 0
1906 4 1.1161523947003037e-01 7.8772450555819177e+01 3.5949883932826332e+01 9.1028061591956572e+01 0 0 0
2148 2 -1.7340239546192454e-01 8.1442753375869884e+01 3.7851570015977678e+01 9.1035787452620852e+01 0 0 0
726 5 -9.5933790039739883e-02 7.9889999287181197e+01 3.3724485217731178e+01 9.9372365101708482e+01 0 0 0
2067 2 -1.9133099537958867e-01 7.7561491682215859e+01 3.5488385319997256e+01 9.7245031521359934e+01 0 0 0
2321 5 -1.0710723798636873e-01 8.0543001320642688e+01 3.5563574679905258e+01 9.3843786919229686e+01 0 0 0
6285 2 -1.8172800220968854e-01 8.1116184253671506e+01 2.9798509461422007e+01 9.1071848441606775e+01 0 0 0
2072 4 1.3070268030732152e-01 7.8042173724396307e+01 3.5958880301435663e+01 9.5236023979160151e+01 0 0 0
727 2 -1.9811449722575591e-01 8.1490638957456696e+01 3.3934287635744660e+01 9.8156293963199857e+01 0 0 0
1910 2 -1.9072554624447136e-01 7.7860855211805898e+01 3.3330823630804048e+01 9.4121622598655748e+01 0 0 0
1912 4 1.4347712911693711e-01 7.9016850037255722e+01 3.3818025924631328e+01 9.2433733005170197e+01 0 0 0
2153 4 1.6735878072538116e-01 8.1276273723626815e+01 3.7999151559307450e+01 9.2136697552182582e+01 0 0 0
2185 4 1.5544886945417988e-01 7.8137946216746144e+01 3.1723945070606167e+01 9.9243690669115040e+01 0 0 0
1920 4 1.3162997814759581e-01 7.8288097666661969e+01 3.0682704350742501e+01 9.5621563702790951e+01 0 0 0
733 4 1.3494230830863385e-01 8.3433550841952226e+01 3.3008806371895389e+01 9.8129668175050497e+01 0 0 0
731 2 -2.6531637471051922e-01 8.1971835853110605e+01 3.1360568199655365e+01 9.8403595048893493e+01 0 0 0
1924 2 4.7969952893139362e-01 7.9661356220389365e+01 2.6386740084098143e+01 9.6565415191503405e+01 0 0 0
1925 4 1.8454114088855925e-01 8.0935006195498062e+01 2.8123711430169017e+01 9.6807582435270021e+01 0 0 0
1907 2 -1.8907872604922399e-01 7.7957837791365122e+01 3.3754969888116406e+01 9.2673333660973881e+01 0 0 0
6287 4 1.4761703924570824e-01 8.0912360379922561e+01 2.9990740869651610e+01 9.2198055927270275e+01 0 0 0
737 1 -5.7206982972065024e-01 8.3035210146082278e+01 2.9176835419616022e+01 9.8176446193939938e+01 0 0 0
1916 5 -1.1488097397797581e-01 8.0547862740385938e+01 3.1343984817133428e+01 9.4270968529118349e+01 0 0 0
732 4 1.7024622227783678e-01 8.2759440982120211e+01 3.3038232952017182e+01 9.9803938129838755e+01 0 0 0
6278 2 -1.7266805443279570e-01 8.3872687015851412e+01 3.1513481147975682e+01 9.5502500120956469e+01 0 0 0
1917 2 -1.7511472372944234e-01 7.9307675081121459e+01 3.0227355615484878e+01 9.5549917072749068e+01 0 0 0
1919 4 1.1488091809466087e-01 7.9529606709229583e+01 3.0349697233825143e+01 9.6635525387199010e+01 0 0 0
2184 4 1.0931156592177410e-01 7.7910696991517881e+01 3.1397716296720020e+01 9.7506464602538657e+01 0 0 0
1913 5 -1.2618973585788759e-01 7.9681586613316597e+01 3.3471586790254094e+01 9.5103154906334950e+01 0 0 0
730 4 1.1144225810229380e-01 8.1970915255496323e+01 3.4974751790616189e+01 9.8124162698293276e+01 0 0 0
1921 2 -2.6305939136216655e-01 7.9820828353889866e+01 2.7901728254861244e+01 9.6608384714059227e+01 0 0 0
728 2 -1.5287902592903294e-01 8.2451463709523779e+01 3.2878885530138888e+01 9.8695623850731380e+01 0 0 0
739 2 4.6074048475104067e-02 8.3754208907147458e+01 2.8083914088109111e+01 9.8737389943268624e+01 0 0 0
735 4 1.3327901670667575e-01 8.0952525777020156e+01 3.1272807621243107e+01 9.8852519845035843e+01 0 0 0
1923 4 1.6556211292501805e-01 7.8352998095931866e+01 2.8384801666977822e+01 9.4909099749340342e+01 0 0 0
729 4 1.3145172735220123e-01 8.1241195453399200e+01 3.3752987047591738e+01 9.7093393418986594e+01 0 0 0
2160 4 1.4846536941449273e-01 8.1826699431003675e+01 3.2340406105274745e+01 9.2252705182700581e+01 0 0 0
6282 4 1.4188202417367921e-01 8.4209012881579397e+01 3.2205385346421828e+01 9.4720595297131666e+01 0 0 0
741 4 9.2757138621584620e-02 8.3382290593567220e+01 2.7678656700904956e+01 9.9700403606881821e+01 0 0 0
2322 4 1.1336488224182560e-01 8.1186096106344976e+01 3.6368743847539001e+01 9.6332870155084990e+01 0 0 0
2156 2 -1.8420403209705968e-01 8.1127362235283542e+01 3.2444813300333259e+01 9.1369687950625220e+01 0 0 0
2159 4 1.2634870426163342e-01 8.0117245709721658e+01 3.2417963411820310e+01 9.1821996407458897e+01 0 0 0
2319 4 1.6059262648780953e-01 8.2566830660001301e+01 3.7521602746660655e+01 9.3858509383382980e+01 0 0 0
6281 5 -8.7414905075151775e-02 8.2625975221339843e+01 3.0012595054464107e+01 9.4701786739353977e+01 0 0 0
2315 2 -1.6105328766481425e-01 8.2493328391464004e+01 3.7531261260000420e+01 9.5004107141629689e+01 0 0 0
2323 4 1.0426793383936879e-01 8.2564123113227353e+01 3.5521617813490323e+01 9.5777497966549888e+01 0 0 0
2318 2 -1.9359606318496420e-01 8.1747218588429774e+01 3.6214722099368878e+01 9.5386129886084717e+01 0 0 0
736 4 1.6037893556057220e-01 8.1851397341467163e+01 3.1160946010131688e+01 9.7328659482060559e+01 0 0 0
6283 4 1.2598868020737850e-01 8.3406354443687533e+01 3.2194376064627136e+01 9.6295570633124200e+01 0 0 0
2066 5 -1.0843801176531227e-01 7.8651833308006374e+01 3.6039178029092689e+01 9.9076334410944753e+01 0 0 0
1926 4 1.5288588054229785e-01 7.9157280294561545e+01 2.8340489322924842e+01 9.7402258888160432e+01 0 0 0
1744 4 1.4950400337038014e-01 8.1206621894526791e+01 2.6259345097851401e+01 9.3124633049172161e+01 0 0 0
740 2 -1.9582890784181706e-01 8.3879722142298476e+01 2.6872977504400570e+01 9.7734337430616804e+01 0 0 0
2320 4 1.3653922028768978e-01 8.3547267166542895e+01 3.7564714444118550e+01 9.5396153935747620e+01 0 0 0
745 4 1.8911459638045938e-01 8.3391216055798324e+01 2.7176916401040273e+01 9.6767789399949351e+01 0 0 0
1812 4 1.2634935210999357e-01 8.4095401110509698e+01 3.1715548964682789e+01 9.1995619470343087e+01 0 0 0
1883 4 9.4848750461586959e-02 7.8106579266318718e+01 2.6953813563589044e+01 9.3486011396620825e+01 0 0 0
2070 4 1.4137019821444374e-01 7.7775202879018366e+01 3.4456472117696649e+01 9.6783502716873798e+01 0 0 0
734 2 4.6853268019218419e-01 8.2908018268554912e+01 3.0326760374302989e+01 9.9035744437684272e+01 0 0 0
1918 2 -1.6643143602151517e-01 7.9415404951852750e+01 2.8706707536366586e+01 9.5261518555796840e+01 0 0 0
2154 5 -1.0806770218640496e-01 8.2466963744083856e+01 3.4932450733814065e+01 9.1981764603290600e+01 0 0 0
2079 4 1.2366707427664343e-01 7.7011869371504574e+01 3.8086641921805771e+01 9.8226556272204974e+01 0 0 0
2082 4 9.4501637566130267e-02 7.4516211216780448e+01 3.8215117263204206e+01 9.7736829350020017e+01 0 0 0
2063 5 -7.9536440865892274e-02 7.7146765913745924e+01 3.5198802696338895e+01 1.0088195187979829e+02 0 0 0
2229 4 1.4333183692960114e-01 7.6629977683880114e+01 3.3840337996581589e+01 1.0367671231223608e+02 0 0 0
2228 4 1.3572344971057620e-01 7.5939641422704526e+01 3.4032409251780400e+01 1.0530253968725424e+02 0 0 0
2225 2 -2.5606113844000006e-01 7.5733985334993022e+01 3.4303473594931035e+01 1.0423610861474923e+02 0 0 0
2169 4 1.2395378482657859e-01 7.3907918461351684e+01 2.7861953991875719e+01 1.0036448842401867e+02 0 0 0
2227 2 -1.6484712748053246e-01 7.5683042765822620e+01 3.5872393974006677e+01 1.0399105599481967e+02 0 0 0
2232 4 1.6670915234699904e-01 7.5370005577057455e+01 3.6112683277681796e+01 1.0296381342209315e+02 0 0 0
2231 4 1.2200388254827255e-01 7.5005505601476059e+01 3.6309204403602351e+01 1.0476330174240789e+02 0 0 0
2224 2 5.0680154577616654e-01 7.4384407287933087e+01 3.3689137114362495e+01 1.0387868708100291e+02 0 0 0
2510 1 -4.7595556196204419e-01 7.1867306628421943e+01 3.4438704470231812e+01 1.0637496875497389e+02 0 0 0
2230 2 -1.8757639328203851e-01 7.7113550888288245e+01 3.6427390635256664e+01 1.0421510811474678e+02 0 0 0
2226 1 -5.0760472906280840e-01 7.4230395123111563e+01 3.2489440990428001e+01 1.0427443843995903e+02 0 0 0