LAMMPS data file via write_data, version 23 Jun 2022, timestep = 500000

8160 atoms
5 atom types

65.1775342724035 104.22246572754473 xlo xhi
52.329877384325016 97.6701226156329 ylo yhi
76.12942488261983 123.87057511739489 zlo zhi

Masses

1 15.999
2 12.011
3 14.007
4 1.008
5 32.06

Atoms # charge/kk

1619 2 3.8398870822985998e-01 6.8563491444795375e+01 5.6051314458035655e+01 7.8124225689450682e+01 0 0 0
1622 1 -5.8112982346651343e-01 6.7558329563100770e+01 5.6547910941734997e+01 7.8700524618920028e+01 0 0 0
1620 4 2.5433176381782968e-01 7.0565041232810628e+01 5.5718770165026044e+01 7.7851261338997475e+01 0 0 0
1618 3 -3.9690815407569413e-01 6.9954934850134464e+01 5.5799143932180186e+01 7.8725577739167065e+01 0 0 0
1614 2 -3.6569784532395642e-02 7.0708107888730154e+01 5.7021580413852043e+01 7.9416941155296797e+01 0 0 0
1613 4 1.3881590070360961e-01 6.9342707694673237e+01 5.6733365845207025e+01 8.0925500970945635e+01 0 0 0
6115 4 1.7141869482305999e-01 7.1220343519287525e+01 5.4096504043294722e+01 8.0047970946555594e+01 0 0 0
6112 2 -1.2298725852588845e-01 7.0237811913012806e+01 5.4139687465972436e+01 7.9582498164262972e+01 0 0 0
5923 2 -1.7859806956241717e-01 7.3323201571481320e+01 5.3936530685712924e+01 8.1672147424337581e+01 0 0 0
1611 2 1.0580728952783669e-01 7.0281986745131434e+01 5.7323243567458569e+01 8.0856200879949100e+01 0 0 0
1617 4 1.6277191040550196e-01 7.1760645194703955e+01 5.6713757092693918e+01 7.9390064556509756e+01 0 0 0
6114 4 1.6657754071504333e-01 7.0379825314435621e+01 5.3339516214007652e+01 7.8808370902910838e+01 0 0 0
6113 2 -1.8023940668963917e-01 6.9131403117142085e+01 5.3895253063092930e+01 8.0608030001385586e+01 0 0 0
6116 4 1.3410040362157080e-01 6.8568548067725303e+01 5.4842863810226341e+01 8.0980068166844362e+01 0 0 0
5761 1 -5.9302388347665769e-01 7.4107095189913196e+01 5.7857364967573560e+01 7.8474980600126671e+01 0 0 0
1627 4 1.4371537075928006e-01 6.7123429946183549e+01 5.3924673655414978e+01 7.6641825416354592e+01 0 0 0
1608 1 -5.2616901681106010e-01 7.1378988633497187e+01 5.7134346083471534e+01 8.1823251050175898e+01 0 0 0
6119 2 -1.9887292815480809e-01 6.9847485810183230e+01 5.3126321719432319e+01 8.1914589248576817e+01 0 0 0
1615 4 1.1880099203228632e-01 7.0085716747487695e+01 5.8112764834079421e+01 7.7618229128856399e+01 0 0 0
1612 2 9.2087386778053472e-04 7.0585955239892826e+01 5.8338494706328220e+01 7.8598016541459543e+01 0 0 0
5928 4 1.3968316790573942e-01 7.2230144013367820e+01 5.4098342933275532e+01 8.1660620751840298e+01 0 0 0
5930 4 1.6561555571223177e-01 7.2948522291976332e+01 5.5815297700046379e+01 8.2566391931745486e+01 0 0 0
1725 4 1.1532679171161983e-01 6.6831484743041486e+01 5.4535046058090813e+01 8.1962780111068597e+01 0 0 0
1987 4 1.9392687632739200e-01 7.0863887751100989e+01 5.5036816456913122e+01 8.2797600853420221e+01 0 0 0
1986 4 1.6917698827009137e-01 6.9143456969117977e+01 5.4717968387895262e+01 8.3294567261154612e+01 0 0 0
1985 2 -2.0621859825960109e-01 6.9989510719117519e+01 5.4336083180925527e+01 8.2758349657505235e+01 0 0 0
5937 4 1.6619428700800665e-01 7.3759288114093579e+01 5.4319535679705432e+01 8.6939578817937630e+01 0 0 0
5932 2 4.7826074175915395e-01 7.3738699414553153e+01 5.4320188333806861e+01 8.4724227685814100e+01 0 0 0
1723 5 -8.5519364923857560e-02 6.6892754044902048e+01 5.4825070512950752e+01 8.4813605847684286e+01 0 0 0
5934 1 -5.4456350035489487e-01 7.2468757850781671e+01 5.4334648525683505e+01 8.4812953632739877e+01 0 0 0
1621 2 -2.0802602359153902e-01 6.8251226373466068e+01 5.5926178349287724e+01 7.6660283413992119e+01 0 0 0
1720 2 -1.9724229290491940e-01 6.6115796654827861e+01 5.4813323455671409e+01 8.2815274109686627e+01 0 0 0
1564 2 -1.9905211784963039e-01 6.5918561912997419e+01 5.9586590907559291e+01 7.8369837514206125e+01 0 0 0
1616 4 1.3525544386412566e-01 7.1618702761128560e+01 5.8467152373144891e+01 7.8152721604972882e+01 0 0 0
1716 1 -5.7656331124971083e-01 6.7229480502702131e+01 5.8821699563311370e+01 8.2487763904569022e+01 0 0 0
1749 4 1.3978352807049446e-01 6.6695720087693374e+01 5.8139420301848013e+01 8.5703140232150801e+01 0 0 0
1719 4 1.5412808085491847e-01 6.7387533474662945e+01 5.6606715324995946e+01 8.1645354283870205e+01 0 0 0
1715 2 -2.3065421581429382e-01 6.6273996244517164e+01 5.6921272646683931e+01 8.1608131534538146e+01 0 0 0
1714 2 4.7299743573710401e-01 6.6148805780218339e+01 5.8425839783853739e+01 8.1914798912751834e+01 0 0 0
1625 4 1.6707689538967685e-01 6.7282104249661998e+01 5.6504934057261359e+01 7.6497116907260931e+01 0 0 0
1604 2 2.6420108668424626e-02 7.1713060771567910e+01 5.8350968991544072e+01 8.2474616223391038e+01 0 0 0
1718 4 1.6227676659133264e-01 6.6026872989360058e+01 5.6666589717712966e+01 8.0550887004597456e+01 0 0 0
1568 4 1.7304861806776481e-01 6.6969045587353804e+01 5.9058078079738053e+01 7.8449712703959591e+01 0 0 0
1605 2 8.5929888501332818e-02 6.9894495805278382e+01 5.8864342787416753e+01 8.0820364999417208e+01 0 0 0
1606 4 1.0572369156252956e-01 7.2831544738046830e+01 5.8672642546190318e+01 8.2505300767655498e+01 0 0 0
1607 4 1.3988409573638602e-01 7.1606450220484689e+01 5.8500666812505081e+01 8.3598261421701963e+01 0 0 0
1609 4 1.8776371052574817e-01 6.8890353538394905e+01 5.8960593630130028e+01 8.1340310486491362e+01 0 0 0
1636 4 1.6591091467165614e-01 7.3041988328378793e+01 5.5209141017755044e+01 7.6684433210081949e+01 0 0 0
1735 4 1.8101400626883143e-01 6.6081964411815520e+01 5.3248921540562506e+01 8.6864859725482404e+01 0 0 0
1610 1 -4.9067488268802451e-01 7.0026286095122941e+01 5.9376850363823877e+01 7.9482600422165319e+01 0 0 0
1817 4 1.6156330967872604e-01 7.1112147827125284e+01 5.2529258493963660e+01 8.6430058931617225e+01 0 0 0
1601 2 -9.0542540837831257e-03 7.0987497937195371e+01 5.9517526131491927e+01 8.1751378615840537e+01 0 0 0
5763 4 1.2930696755578017e-01 7.4161604580157416e+01 5.9115144360684326e+01 8.1182417443919988e+01 0 0 0
1726 5 -9.9273609317489672e-02 6.7902576731100027e+01 5.2564819582527797e+01 8.4708761589510615e+01 0 0 0
1785 4 1.1757319532241602e-01 6.8052564143652646e+01 5.9432681218925680e+01 8.5158725017693399e+01 0 0 0
1562 4 2.1014619749311603e-01 6.5567665716151893e+01 5.6618957197152490e+01 7.8684656074686600e+01 0 0 0
6284 5 -6.0466008372009529e-02 6.8892174674503934e+01 5.4593380079210540e+01 8.7857646076742355e+01 0 0 0
1795 4 1.8601320652319686e-01 7.2612172329561133e+01 5.9630661770477367e+01 8.6823360548408331e+01 0 0 0
1553 5 -1.3817703283927785e-01 6.5343031054272899e+01 5.4365173398675445e+01 7.9769921266615711e+01 0 0 0
5919 2 3.6235965347835664e-01 7.3445751915512432e+01 5.2635568181588447e+01 7.9471549840658227e+01 0 0 0
5924 4 1.3780700684769595e-01 7.3928651611758255e+01 5.4749882207558031e+01 7.9624433620199198e+01 0 0 0
5921 2 -2.5306025677571475e-01 7.3997323089693822e+01 5.3781414075235915e+01 8.0266225899352975e+01 0 0 0
5926 2 2.8988503060359012e-02 7.3898155700073872e+01 5.5159559247422237e+01 8.2479287721646401e+01 0 0 0
5760 2 -2.5915703618100061e-01 7.4680409149335873e+01 5.9453387563722572e+01 8.0247396899526251e+01 0 0 0
5927 4 1.5567417589177235e-01 7.3367739896515133e+01 5.2992503028017708e+01 8.2272047478073532e+01 0 0 0
1789 2 3.3954164595528347e-01 7.0673257120893936e+01 6.0114487858685685e+01 8.7490344616469201e+01 0 0 0
1790 4 2.1851754444748045e-01 6.8779315839389156e+01 5.9610823127182520e+01 8.7156671042471984e+01 0 0 0
5933 2 -2.5686171967354532e-01 7.4363308445611267e+01 5.4032076734751605e+01 8.6119599366372285e+01 0 0 0
6117 4 1.1356663866486717e-01 6.8386522769397430e+01 5.3241654863636441e+01 8.0038312596839333e+01 0 0 0
5935 2 -1.6900280661109895e-01 7.4493929323454097e+01 5.2458159672320477e+01 8.6233563902083105e+01 0 0 0
1750 4 1.8249464318397599e-01 6.5248808482027854e+01 5.8228895043885842e+01 8.4812954736059041e+01 0 0 0
7263 4 1.6896460762991827e-01 7.2299817204884718e+01 6.9125769256847633e+01 7.6502598242775008e+01 0 0 0
1623 2 -1.8852418733969439e-01 6.8059577204695998e+01 5.4437741733909057e+01 7.6210015504662294e+01 0 0 0
1569 4 1.5697801166830927e-01 6.5598809598699347e+01 5.9799938820333530e+01 7.9393341340794862e+01 0 0 0
1747 2 -1.6744336745230781e-01 6.5601820856981107e+01 5.7907405123625324e+01 8.5813249553211918e+01 0 0 0
5929 1 -5.8296960748753901e-01 7.4613640005962736e+01 5.4697334605294294e+01 8.3678687810860538e+01 0 0 0
1631 4 1.1142351802592841e-01 6.9181325194650668e+01 5.2766106495020544e+01 7.7012810355326209e+01 0 0 0
1603 4 1.4394128385629704e-01 7.1662511641118172e+01 6.0124947707218567e+01 8.1185452996202315e+01 0 0 0
1794 4 1.5706272156306145e-01 7.1731598952521580e+01 6.0555249232770834e+01 8.5598033416481485e+01 0 0 0
1791 2 -2.3304287243074132e-01 7.1895782722508727e+01 6.0512444128453822e+01 8.6718279394052672e+01 0 0 0
1786 4 1.6275723075588289e-01 6.8625490296968124e+01 6.0240608728808326e+01 8.4075698112533274e+01 0 0 0
1799 1 -5.6350078597298403e-01 7.4790496694072147e+01 6.1256725547005395e+01 8.7633276843085341e+01 0 0 0
1574 4 1.2912107053075300e-01 6.6759647618109796e+01 6.2268179920674555e+01 7.9371530018045789e+01 0 0 0
1575 4 1.5980370556289780e-01 6.7909677694272830e+01 6.1223481674610561e+01 7.8746879513033448e+01 0 0 0
1571 4 1.3389869681196842e-01 6.6258905740493731e+01 6.0866004854802974e+01 7.6458466299820728e+01 0 0 0
1567 2 -1.9714872481083018e-01 6.6042335866042933e+01 6.0950845501681520e+01 7.7592936083706590e+01 0 0 0
1801 4 1.5076160914210904e-01 7.3932962136529682e+01 6.1530511211512419e+01 8.5564126411820553e+01 0 0 0
1570 2 -1.9046593928658342e-01 6.7071589969222359e+01 6.1829478532489432e+01 7.8393784781058358e+01 0 0 0
2999 4 1.4602464022339343e-01 7.2160268363134861e+01 6.5224254267673317e+01 7.7117865107008953e+01 0 0 0
1769 3 -4.4482284902002062e-01 6.5619949502957667e+01 6.4528940405695380e+01 8.4661844451239276e+01 0 0 0
1580 4 1.6431448317643960e-01 6.6410577545381173e+01 6.5304259993599103e+01 7.9943818545154784e+01 0 0 0
1773 4 1.7449161685812009e-01 6.6779707975403809e+01 6.3296404955915044e+01 8.3484475966601480e+01 0 0 0
1775 2 6.7543312121835189e-02 6.6917507093185378e+01 6.2489363485911610e+01 8.5586412331146008e+01 0 0 0
1783 4 1.4560207779602252e-01 6.8241126058738587e+01 6.2882825205648679e+01 8.7372892963238968e+01 0 0 0
1584 2 4.9866198048459137e-01 6.8818828063587333e+01 6.6869373016091899e+01 8.1825914014470527e+01 0 0 0
5768 5 -9.9444725520609137e-02 7.3877360729378722e+01 6.3420553646764688e+01 7.8770429054470043e+01 0 0 0
1576 5 -8.9664496841837027e-02 6.8618219701906838e+01 6.4414220432632987e+01 7.8843711403891461e+01 0 0 0
1578 2 -1.7716340983651815e-01 6.7559313847231266e+01 6.7149567479932969e+01 7.9536332146509494e+01 0 0 0
1585 4 1.5046092672730077e-01 6.9853172382626894e+01 6.6830798400171631e+01 7.9871426688220666e+01 0 0 0
1581 2 -2.4230594157006397e-01 6.8950867836734929e+01 6.7329513613876188e+01 8.0382524019135701e+01 0 0 0
1587 1 -5.7548361087116384e-01 6.9146126135212114e+01 6.5473403033751126e+01 8.2003620532225568e+01 0 0 0
1592 4 1.1314841859032736e-01 7.0696181072878417e+01 6.5240129852929186e+01 8.0554281383583984e+01 0 0 0
1589 2 3.2031555191862696e-02 7.0405891462067160e+01 6.4966235369025028e+01 8.1585423461532898e+01 0 0 0
1602 4 2.0091037522527555e-01 6.9793530873610919e+01 6.1157271076734716e+01 8.1897038110476856e+01 0 0 0
1599 3 -4.6420691554841731e-01 7.0484355470744006e+01 6.0662822612302136e+01 8.2607371492386719e+01 0 0 0
1594 4 1.5746596472202734e-01 6.9397599238143926e+01 6.3118410046979228e+01 8.1957115610800429e+01 0 0 0
1774 2 1.3095158662325423e-03 6.8208262646070395e+01 6.4460365837782348e+01 8.4661061721153047e+01 0 0 0
1784 2 -1.0241325910973813e-02 6.8993590560162488e+01 6.1284176857106075e+01 8.5997233767217338e+01 0 0 0
1597 4 2.1744750305579158e-01 7.2338030750380327e+01 6.3554327549563624e+01 8.2919451034926851e+01 0 0 0
1782 2 9.0180831699108767e-03 6.8083640077460075e+01 6.0572525968765994e+01 8.4963774765698787e+01 0 0 0
1598 4 1.6952103454533046e-01 7.0984691716325059e+01 6.3554723627750676e+01 8.3950084780550554e+01 0 0 0
1590 2 -1.8596624797384703e-01 7.0459580697359257e+01 6.3414612221689374e+01 8.1769351238061489e+01 0 0 0
1593 2 -2.5402781800242397e-01 7.1299720256866095e+01 6.3115983229263335e+01 8.2963012107709645e+01 0 0 0
1777 4 1.5953523166360348e-01 6.7891234713494882e+01 6.5559358532846844e+01 8.4707320554995434e+01 0 0 0
1787 4 1.3724960484433921e-01 6.9993160256762295e+01 6.1452689253446039e+01 8.5422227054396771e+01 0 0 0
1781 2 7.8870705466067947e-02 6.8296561166413312e+01 6.2689366200798048e+01 8.6258207658251777e+01 0 0 0
1796 2 3.4236584587966495e-02 7.3931010839492757e+01 6.1913342885359754e+01 8.6626781694380426e+01 0 0 0
1776 4 1.8774474591639595e-01 6.8636837121754866e+01 6.4570639193845622e+01 8.3658810915864152e+01 0 0 0
1771 2 -1.4363766380556453e-02 6.6860263592589490e+01 6.3660004557833034e+01 8.4525592278988015e+01 0 0 0
1780 1 -4.9568911012250916e-01 6.6813653838634735e+01 6.1213196344648161e+01 8.4838225643444190e+01 0 0 0
1595 4 1.2598849997502290e-01 7.0743043384795882e+01 6.2791838775855325e+01 8.0799382865091786e+01 0 0 0
1596 2 3.5155457598371048e-01 7.1449404132784352e+01 6.1602571435851878e+01 8.3108248706492262e+01 0 0 0
1778 1 -5.0285779676613029e-01 6.9039833064777412e+01 6.3823944293787171e+01 8.5636631760133966e+01 0 0 0
1600 1 -5.9635378169335795e-01 7.2586118584570499e+01 6.1334741507388706e+01 8.3644261724550333e+01 0 0 0
1577 2 -1.6457811919470752e-01 6.7122360942562025e+01 6.5719058965430236e+01 7.9155178416837515e+01 0 0 0
1573 5 -1.2170813904921204e-01 6.7657408987339821e+01 6.3229683986065218e+01 7.7302961347245699e+01 0 0 0
1788 3 -4.6104272270223512e-01 6.9289218795163379e+01 6.0529327250223155e+01 8.7245372744287394e+01 0 0 0
3164 1 -6.1366869703628102e-01 7.3566337290067153e+01 6.4924738630496037e+01 8.2350840918654910e+01 0 0 0
1591 4 1.4860348601452320e-01 7.1329650946219161e+01 6.5456536627195248e+01 8.1993431882516120e+01 0 0 0
1713 4 1.2874210979164874e-01 6.5953755782668040e+01 6.0985869579835551e+01 8.1969482122856107e+01 0 0 0
1779 4 1.0856254692951108e-01 6.6067692930840650e+01 6.2757312777689897e+01 8.6262132999757924e+01 0 0 0
1793 2 -1.6901330786782182e-01 7.2511936626262511e+01 6.1793479458538997e+01 8.7188338326615238e+01 0 0 0
3163 2 -2.6406315468882990e-01 7.4305968718923125e+01 6.6526034171806018e+01 8.0666582809518744e+01 0 0 0
3162 2 4.9659687592828861e-01 7.3740835599397656e+01 6.6162742199642381e+01 8.2019275523724076e+01 0 0 0
3456 4 1.8275172224431693e-01 6.9736601839383539e+01 6.5754700328610227e+01 8.7268437783406753e+01 0 0 0
3166 4 1.4283704419648463e-01 7.3512752178291038e+01 6.6462146567363490e+01 7.9814654094653932e+01 0 0 0
5770 4 1.4381709733154974e-01 7.3799288139657122e+01 6.2283671727687342e+01 8.1102465156479369e+01 0 0 0
1579 4 1.1927328493534936e-01 6.6360348676529071e+01 6.5708358076608519e+01 7.8345544972899688e+01 0 0 0
3160 4 1.2288006582196782e-01 7.2079094467622625e+01 6.6205294525596400e+01 8.4229960800878530e+01 0 0 0
1800 4 1.1314570779974986e-01 7.4125350849153307e+01 6.2998695330447681e+01 8.6273884498148348e+01 0 0 0
1797 4 1.6160409142409235e-01 7.1867814358541722e+01 6.2716822817407206e+01 8.6967901864962897e+01 0 0 0
5762 2 -1.7174443360437999e-01 7.3867784636670919e+01 6.0645080595417738e+01 7.9568059050753718e+01 0 0 0
3161 4 1.4973730149274306e-01 7.3600145412050551e+01 6.6451090501928832e+01 8.4759946413101147e+01 0 0 0
3156 2 2.6458116459126726e-02 7.2904330237730605e+01 6.6980436687903847e+01 8.4088151238018114e+01 0 0 0
3159 1 -5.8291880693962461e-01 7.3400695066112348e+01 6.7322303377683113e+01 8.2717993771480934e+01 0 0 0
3446 5 -9.3936110158179473e-02 6.6966945807507201e+01 6.6072601366403561e+01 8.7078254747819997e+01 0 0 0
5765 2 -1.9652861139609090e-01 7.4388266582642530e+01 6.2021538012631581e+01 8.0143035207484203e+01 0 0 0
3167 4 1.4145004729309033e-01 7.4641665270572418e+01 6.7610665662736125e+01 8.0684554834929500e+01 0 0 0
1772 4 2.0638859990899783e-01 6.5317330570425014e+01 6.4289172466853188e+01 8.5634184474988942e+01 0 0 0
5767 4 1.3988467837117430e-01 7.2769880292469708e+01 6.0582054152135100e+01 7.9718716452553835e+01 0 0 0
7454 4 1.6297538001955916e-01 7.4626376396507752e+01 6.2561655360171699e+01 8.3031195068121093e+01 0 0 0
3000 4 1.8236077596852127e-01 7.1041671374060442e+01 6.4281740914344638e+01 7.6135310836632442e+01 0 0 0
3329 1 -5.5251538600353933e-01 6.9246992111606048e+01 7.4805694150694933e+01 8.6168952260604755e+01 0 0 0
3154 4 1.6880935136311781e-01 7.0534709794386231e+01 6.7449235026486747e+01 8.4453464593833630e+01 0 0 0
7270 1 -5.1162982552501790e-01 7.4508073465966163e+01 6.7786528699252344e+01 7.6237645510318941e+01 0 0 0
5766 4 1.6379079203409094e-01 7.4020655278267157e+01 6.0617417388862499e+01 7.8472572000890793e+01 0 0 0
6968 4 1.4522149342350424e-01 7.0279224769520113e+01 7.3688191632418139e+01 7.8240000466643707e+01 0 0 0
1565 4 1.3049795126877325e-01 6.5309722974876848e+01 5.8191691046728543e+01 7.6630463106601368e+01 0 0 0
1724 4 1.1307757880960359e-01 6.5464020398662157e+01 5.3960055040361162e+01 8.2556433605541386e+01 0 0 0
3157 4 1.4731267631823097e-01 7.2969818129509832e+01 6.9230144676336181e+01 8.4627922080902749e+01 0 0 0
7262 4 2.5401801881144503e-01 7.1184962654267991e+01 6.9243715645625102e+01 7.8033159236699447e+01 0 0 0
7265 2 8.4271005491880976e-02 7.4293281234947415e+01 6.8700675728822716e+01 7.7378190413427689e+01 0 0 0
1629 1 -5.9342359031734404e-01 7.0554392268542031e+01 5.4370047543928166e+01 7.6502794811902362e+01 0 0 0
6120 4 1.4742770345511622e-01 7.0796751945796530e+01 5.2595640863493763e+01 8.1708151343419075e+01 0 0 0
6118 4 1.2575231548994181e-01 6.9150122419069319e+01 5.2357693194871473e+01 8.2402240175944215e+01 0 0 0
3148 3 -4.4910339280809269e-01 7.0143241923649995e+01 7.0108810827243872e+01 8.3418270323367281e+01 0 0 0
3152 1 -5.6872750330577060e-01 7.0131760402305716e+01 7.0254332194130029e+01 8.5842647564634703e+01 0 0 0
3129 3 -4.0377444122285644e-01 6.8632102002348816e+01 7.4495330250054764e+01 7.9265492595657904e+01 0 0 0
3337 4 1.4291958214624759e-01 6.7953270876560808e+01 7.2292134431311254e+01 8.7064921946712161e+01 0 0 0
3119 2 3.5873312795832654e-02 6.7261309204705498e+01 7.0473208279269102e+01 7.6873198771971090e+01 0 0 0
7159 4 1.7154731774423426e-01 7.1885769253534363e+01 7.4252144039495505e+01 8.4803141668563910e+01 0 0 0
3151 2 -2.1871453385594489e-01 7.0980932549734050e+01 6.8272257441491604e+01 8.5148582846135554e+01 0 0 0
3144 2 -8.1401531997903204e-03 6.9497439831372631e+01 7.1459460098115983e+01 8.3295234791248461e+01 0 0 0
3142 2 1.3470604436290756e-02 7.0401758977113914e+01 7.2690775777227813e+01 8.3654881124272137e+01 0 0 0
3135 2 1.0112982309270749e-01 6.9743638124682917e+01 7.3097471598288124e+01 8.1403011411726538e+01 0 0 0
3272 4 1.8178717232952687e-01 6.6669973480988716e+01 6.7505572813674391e+01 8.4107697481967975e+01 0 0 0
7269 4 1.0516717987401400e-01 7.4308691228207579e+01 6.8274033754010247e+01 7.8472864585436852e+01 0 0 0
1583 4 1.0886899983542053e-01 6.7603033290748101e+01 6.7769874767281848e+01 7.8586718677437233e+01 0 0 0
7147 4 1.5104602618972277e-01 7.3837893576633263e+01 7.1037561272811686e+01 7.9634337371744991e+01 0 0 0
3248 4 1.1401957981090180e-01 6.5238166215550507e+01 6.4406171619301659e+01 7.7174519986374563e+01 0 0 0
3137 4 1.5401215174457450e-01 6.6566468785524506e+01 7.3135478403159524e+01 8.0294542755126756e+01 0 0 0
7148 2 4.4257273735965122e-02 7.4009767793975158e+01 7.1940946007824508e+01 8.2293169079888685e+01 0 0 0
1582 4 1.0712217452163657e-01 6.6735039350303140e+01 6.7648668396307215e+01 8.0099075957366978e+01 0 0 0
1717 2 -1.5530953531502756e-01 6.5336869286514101e+01 5.6109206271117230e+01 8.2537862982582581e+01 0 0 0
7264 2 2.5013268495567530e-03 7.3528626768985418e+01 7.0941074618809665e+01 7.6848816107650208e+01 0 0 0
7149 4 1.5472137063688199e-01 7.3279028612193301e+01 6.9799200533526985e+01 8.1910557665291520e+01 0 0 0
3138 1 -5.0813917929923957e-01 6.7541408592114010e+01 7.1945596712868934e+01 8.1861098896311759e+01 0 0 0
3130 1 -5.9630890174316187e-01 6.6219213216618243e+01 7.4746243488486300e+01 7.8677923587875654e+01 0 0 0
6970 4 1.6497070641930406e-01 7.1972749710615034e+01 7.4761405051310362e+01 7.9462529584061699e+01 0 0 0
3264 2 -1.9205283234629536e-01 6.5374584002228332e+01 6.7941055639618725e+01 8.2387641568514127e+01 0 0 0
3155 4 1.7491607311054311e-01 7.0633090469285392e+01 6.8055138960194000e+01 8.6222584675034554e+01 0 0 0
3267 2 -1.6194590124319461e-01 6.5886986753155654e+01 6.8290873261083576e+01 8.3787511893313408e+01 0 0 0
3443 5 -1.2436610540253691e-01 6.6017774066470253e+01 6.7960458837414549e+01 8.6970140238975773e+01 0 0 0
3121 4 1.3379239466613019e-01 6.8041389244440282e+01 6.9674836887389148e+01 7.6805881708124517e+01 0 0 0
7261 2 -3.5241648389741774e-02 7.2990282850746325e+01 6.9499101983591657e+01 7.7271967969510627e+01 0 0 0
3143 4 1.7677809885514581e-01 6.9433072176975656e+01 7.0957222583424254e+01 8.1204601635459966e+01 0 0 0
7266 4 1.2615863977375733e-01 7.2723749928916575e+01 7.1637114979917982e+01 7.7199717492151422e+01 0 0 0
3332 2 5.0155804261688985e-01 6.7955656157494332e+01 7.4506785066650423e+01 8.6736438283629766e+01 0 0 0
6965 2 -1.2542743457661640e-01 6.9957439391394956e+01 7.4740100106275293e+01 7.8484483333132573e+01 0 0 0
7144 3 -4.5890849760730767e-01 7.2114981253984666e+01 6.9343674608953862e+01 7.8493734867374641e+01 0 0 0
3134 2 -1.7521341198679424e-03 6.7230607825400185e+01 7.3230252622798005e+01 8.1182051840528104e+01 0 0 0
7160 2 -1.6741502517234960e-01 7.4600403439397553e+01 7.4024576683542165e+01 8.5990477713099082e+01 0 0 0
7164 4 1.4254648105306938e-01 7.4181434518708087e+01 7.3771116706824969e+01 8.7006941307959238e+01 0 0 0
3270 2 -1.8449158148480460e-01 6.6456001900339047e+01 6.9653900408922183e+01 8.4056950180131977e+01 0 0 0
3136 4 1.2112510617498269e-01 6.6659178082616705e+01 7.4054822441471828e+01 8.1735587649330938e+01 0 0 0
7143 2 -2.4250027914946085e-01 7.2886823334116897e+01 7.1183498107223556e+01 8.0186108224898788e+01 0 0 0
1586 4 1.5191083593131707e-01 6.9161018248518445e+01 6.8479594083655016e+01 8.0263936678664606e+01 0 0 0
3133 4 1.3728432862161741e-01 6.8619077223803984e+01 7.4952655900946013e+01 8.1359065562285537e+01 0 0 0
3147 4 1.6332182109950938e-01 6.8668122498563946e+01 7.1605966185042604e+01 8.4041122031752977e+01 0 0 0
3276 5 -7.6366961213559875e-02 6.5633060973715715e+01 7.2626478555649115e+01 8.4637185592036289e+01 0 0 0
3145 4 1.7450712235941165e-01 7.1420620235563476e+01 7.2353539320301195e+01 8.4038651483405218e+01 0 0 0
3126 2 3.1559404611810798e-01 6.7323319242340943e+01 7.4139726399534467e+01 7.8479084677806284e+01 0 0 0
3275 4 1.7635192011076753e-01 6.6747216380737356e+01 7.0078923848049371e+01 8.3035816151216864e+01 0 0 0
3125 4 1.5814777727980983e-01 6.8895270444287419e+01 7.1676450461086716e+01 7.7739038507449237e+01 0 0 0
7155 2 -2.4619682702925574e-01 7.2696822069971688e+01 7.4878761953721494e+01 8.4336018881177580e+01 0 0 0
3120 2 -2.1358730003371126e-01 6.7811482604177897e+01 7.1627413116771024e+01 7.7853224856420667e+01 0 0 0
7333 5 -9.6824749704697871e-02 7.4488929375653186e+01 7.4200379506335167e+01 7.8524600354059118e+01 0 0 0
3146 4 1.4516520307550201e-01 7.0179936688096674e+01 7.2986159121879325e+01 8.4732531147267849e+01 0 0 0
3128 4 1.9195279681335095e-01 6.6057422935375783e+01 7.2890029816850799e+01 7.7360138909396355e+01 0 0 0
7142 2 3.7537786028728520e-01 7.1838826269831557e+01 7.0430888817010853e+01 7.9454536013147361e+01 0 0 0
7156 1 -5.6447599344551935e-01 7.3373579334962145e+01 7.4919511505204426e+01 8.2022401617321179e+01 0 0 0
3149 2 3.8618595873431483e-01 7.0508157916728209e+01 6.9668898179272716e+01 8.4762931757285088e+01 0 0 0
7150 4 2.0372099171705588e-01 7.1948677748843593e+01 7.0938689874968645e+01 8.2227805896524700e+01 0 0 0
3140 1 -4.6908447830881733e-01 7.0474799254004836e+01 7.3617010132671922e+01 8.2569397238903264e+01 0 0 0
7141 1 -6.1024634892694163e-01 7.0699032059263956e+01 7.1007914917429162e+01 7.9613950314948340e+01 0 0 0
7145 2 -1.9541739234548397e-01 7.2966741869971813e+01 7.0872008201126036e+01 8.1723940919062144e+01 0 0 0
3153 2 -1.9973746994775557e-01 7.2527119061144091e+01 6.8212121721138544e+01 8.5010833362052111e+01 0 0 0
3341 5 -1.0617512261140558e-01 7.1845245813673856e+01 7.3668975380807339e+01 8.7513226801266882e+01 0 0 0
3274 4 1.6365491748738814e-01 6.7445900139602969e+01 6.9582290329389281e+01 8.4483019090240916e+01 0 0 0
1588 1 -6.0695077198069214e-01 6.8444131492144507e+01 6.7694005199087485e+01 8.2717438436002311e+01 0 0 0
7268 1 -5.1342042227467877e-01 7.4864214655133054e+01 7.1144224132283597e+01 7.7281732700316454e+01 0 0 0
3268 4 1.6042890241630631e-01 6.6306952950216299e+01 6.7833316620458618e+01 8.1729218586679593e+01 0 0 0
3122 4 1.0920032124157431e-01 6.6631877716248042e+01 6.9865745821962975e+01 7.7532286220077609e+01 0 0 0
3333 2 -2.4358308821356894e-01 6.7967256525487272e+01 7.3290092531815887e+01 8.7639784931445732e+01 0 0 0
3127 4 1.7506420133760792e-01 6.7567327943600290e+01 7.3360308510652871e+01 7.6514201119595768e+01 0 0 0
7152 4 1.2413782134403746e-01 7.4437164049682394e+01 7.2414123698267275e+01 8.1331991624101377e+01 0 0 0
3141 2 9.0289612592924520e-02 6.8986336570204969e+01 7.1756690732823031e+01 8.1843681397792494e+01 0 0 0
3123 2 -2.1286766056279804e-01 6.7143172426827576e+01 7.2993000482573521e+01 7.7561199052548787e+01 0 0 0
7151 1 -5.6066891838553756e-01 7.3400837270501327e+01 7.2796288483966208e+01 8.3277850035990539e+01 0 0 0
3150 4 2.6922465402956891e-01 6.9322240329927340e+01 6.9462150910894820e+01 8.3091680855959396e+01 0 0 0
3342 4 1.9446909312219268e-01 6.9962701587915618e+01 7.1838363590109765e+01 8.7249176706281048e+01 0 0 0
3158 4 1.3218905188408289e-01 7.3027452856102030e+01 6.8145799373169268e+01 8.6014910910964474e+01 0 0 0
3124 4 1.4766314897013297e-01 6.7755090414677923e+01 7.1391235029378890e+01 7.8914712930257622e+01 0 0 0
3131 2 -5.7053059811161926e-02 6.8559046009408902e+01 7.3926478446472984e+01 8.0915328336073046e+01 0 0 0
3139 4 1.7736249856051090e-01 7.0304534793618799e+01 7.2809735867757922e+01 8.0449850899078712e+01 0 0 0
7154 2 5.2586580665234262e-01 7.3247087029206497e+01 7.4229604616137053e+01 8.3068041759390482e+01 0 0 0
7146 4 1.6998855248242997e-01 7.2686646682130160e+01 7.2331865893376758e+01 8.0076516837494395e+01 0 0 0
7165 4 1.7799621249389388e-01 7.4309833815625510e+01 7.3089479840384641e+01 8.5389096848033518e+01 0 0 0
5931 4 1.2640436090705987e-01 7.4397280006633366e+01 5.5867162755332835e+01 8.1767877990291467e+01 0 0 0
7458 4 1.2528561703339275e-01 7.4836996232170833e+01 6.3716101282380059e+01 8.4952397087458365e+01 0 0 0
1626 2 4.6818801183687961e-02 6.9377607372842448e+01 5.3587808656430816e+01 7.6295930199882463e+01 0 0 0
1753 4 1.3332105060170196e-01 6.5207104568277984e+01 5.8593035146509450e+01 8.7961609180397204e+01 0 0 0
1731 2 -1.6929946053344971e-01 6.5192545524855774e+01 5.2577944723264849e+01 8.6728025561741418e+01 0 0 0
1643 4 1.6051121198203205e-01 7.3302463494562133e+01 5.8379529994490682e+01 7.6192350019563051e+01 0 0 0
6285 2 -1.7191818435120010e-01 6.9503471601615786e+01 5.4367337726023841e+01 8.9779499998017883e+01 0 0 0
6288 4 1.3225281828442273e-01 6.9121467934856184e+01 5.3432100211895978e+01 9.0341416491522750e+01 0 0 0
6286 2 -1.7365410834302403e-01 6.9289234264806538e+01 5.5668657667063805e+01 9.0597397815145683e+01 0 0 0
2156 2 -1.7642952423776204e-01 6.8254072275298981e+01 5.5614734360522554e+01 9.1831833947104485e+01 0 0 0
6289 4 1.4116005978242444e-01 7.0327675142139483e+01 5.6006039798879179e+01 9.0928546635048548e+01 0 0 0
6290 4 1.5429311042826330e-01 6.9002500926617941e+01 5.6457255460699727e+01 8.9824643717205049e+01 0 0 0
2160 4 1.2721446157650837e-01 6.8826611447976418e+01 5.5203888048985718e+01 9.2758852863873912e+01 0 0 0
2155 2 -1.7035840961086890e-01 6.7621509403338095e+01 5.6978557374478541e+01 9.2184166290979476e+01 0 0 0
6272 2 4.9382933550864672e-01 7.3120819661267220e+01 5.6113909375524507e+01 9.2468821356045993e+01 0 0 0
2159 4 1.2955275363460564e-01 6.7470462625709146e+01 5.4772981049316797e+01 9.1691468183428967e+01 0 0 0
6278 2 -1.6821223047409856e-01 7.3758022207782375e+01 5.6787834320299162e+01 8.9323211825846300e+01 0 0 0
6287 4 1.3503898546354182e-01 7.0562918473586862e+01 5.4020470676452867e+01 9.0001173563843892e+01 0 0 0
6274 1 -5.3928928572966495e-01 7.2649740268368916e+01 5.5051849936999048e+01 9.1929617168922832e+01 0 0 0
2158 4 1.3930407701729333e-01 6.7683566531206168e+01 5.7751402736047076e+01 9.1316300353230261e+01 0 0 0
2157 4 1.5173087850554268e-01 6.6493246740014584e+01 5.6787632605199818e+01 9.2301504169969547e+01 0 0 0
6283 4 1.5493408095235556e-01 7.2690316536263595e+01 5.6377522333324222e+01 8.9292316303570871e+01 0 0 0
6269 1 -5.1389924515386043e-01 7.3427948323948769e+01 5.6438800045836501e+01 9.3797318703227489e+01 0 0 0
1745 4 1.8732831758950810e-01 6.6170090428791426e+01 5.3020433710069149e+01 8.9271194515312374e+01 0 0 0
6275 2 -1.5145330468292115e-01 7.3808796022022719e+01 5.7773594021144042e+01 9.0511816379106136e+01 0 0 0
6273 2 -2.2599630719115088e-01 7.2812244160005548e+01 5.7440036985805733e+01 9.1717011734092523e+01 0 0 0
2154 5 -1.2139325143557314e-01 6.8624054342188856e+01 5.7487205217809795e+01 9.3892079360903494e+01 0 0 0
742 4 1.1922251574519065e-01 6.8269735981364335e+01 5.5705688370097441e+01 9.7974914985550853e+01 0 0 0
6267 4 1.6105824771170946e-01 7.0958736238827456e+01 5.6128755450571674e+01 9.4071485933929068e+01 0 0 0
6270 4 1.5416839802543111e-01 7.3026134570338982e+01 5.4354448605414547e+01 9.4693723874358298e+01 0 0 0
746 2 3.8093856604032544e-01 6.8586581565625096e+01 5.3280268181535817e+01 9.6099315509915485e+01 0 0 0
743 2 -2.6014370454846880e-01 6.7946238326475878e+01 5.4582830383423293e+01 9.5614643890896332e+01 0 0 0
748 4 1.4448762061865530e-01 6.8761926933010201e+01 5.5409100472843406e+01 9.5669097570626320e+01 0 0 0