LAMMPS data file via write_data, version 23 Jun 2022, timestep = 2500000

8160 atoms
5 atom types

68.48216676154864 100.91783323839962 xlo xhi
37.329877384325016 112.6701226156329 ylo yhi
81.17874059860802 118.8212594014067 zlo zhi

Masses

1 15.999
2 12.011
3 14.007
4 1.008
5 32.06

Atoms # charge/kk

1723 5 -7.6991970897905077e-02 7.2733286361313063e+01 3.8472764995119000e+01 8.6719803417247405e+01 0 0 0
1749 4 1.4116996369160401e-01 7.2962056961192033e+01 4.2230003610968865e+01 8.7960740741344821e+01 0 0 0
1719 4 1.5402552583607507e-01 7.2709168239776346e+01 4.0189902744270341e+01 8.4886413537684163e+01 0 0 0
1746 5 -1.1511264887783257e-01 7.1323346377814445e+01 4.0073391263200079e+01 8.8183543913948952e+01 0 0 0
6284 5 -6.8942932014347133e-02 7.5212666444740861e+01 3.8552753675799643e+01 8.9194867705050086e+01 0 0 0
1747 2 -1.7027813426854913e-01 7.1974507145866042e+01 4.1895736050692754e+01 8.7470563364497750e+01 0 0 0
1748 2 -1.6634355779114918e-01 7.0878743169386638e+01 4.2968636581657037e+01 8.7636047519297975e+01 0 0 0
1750 4 1.4511571581914462e-01 7.2202723377965668e+01 4.2017201267858063e+01 8.6388042140375262e+01 0 0 0
1711 1 -5.8703054785035758e-01 7.1924742317582087e+01 4.2268524926106124e+01 8.2897715607023684e+01 0 0 0
1715 2 -2.4756952331782289e-01 7.1783491884760664e+01 4.0326943232195788e+01 8.4298981938971153e+01 0 0 0
1717 2 -1.5565055803300792e-01 7.0654482356386083e+01 3.9326089503298725e+01 8.4914272412726888e+01 0 0 0
1718 4 1.3725976775933238e-01 7.2178544096545934e+01 3.9932589840591575e+01 8.3223810640592731e+01 0 0 0
1714 2 4.9015283347779348e-01 7.1273181109766981e+01 4.1725955702985054e+01 8.4070386112746064e+01 0 0 0
1722 4 1.6962800143697890e-01 7.0144528494161193e+01 3.9825977650351042e+01 8.5834300501659328e+01 0 0 0
1720 2 -1.8311323865406817e-01 7.1262102494539221e+01 3.7964904257518967e+01 8.5392311676888838e+01 0 0 0
1752 4 1.6874508096044166e-01 6.9872082594439632e+01 4.2461834398748081e+01 8.7720130758949296e+01 0 0 0
1716 1 -6.6421818467924232e-01 7.0276715337918390e+01 4.2093644658445413e+01 8.4778987784323732e+01 0 0 0
1785 4 1.2416975725825115e-01 7.3648717714423171e+01 4.3235416126354309e+01 8.5699880530937122e+01 0 0 0
1721 4 1.7351072916353041e-01 6.9797235792465997e+01 3.9181249007099808e+01 8.4188943592008542e+01 0 0 0
1656 4 1.2274733060447685e-01 6.9690083403301998e+01 4.0226896326907315e+01 8.2272214853075027e+01 0 0 0
1822 4 2.8246661438847737e-01 6.9200656767225212e+01 4.3325449835387417e+01 8.5301167204474268e+01 0 0 0
1743 5 -9.2871097806938863e-02 7.3262024849298754e+01 3.9972988935312038e+01 9.0055280823920967e+01 0 0 0
1725 4 1.8601505515084588e-01 7.1614478133202013e+01 3.7387665504923362e+01 8.4442874355749098e+01 0 0 0
1545 2 -2.5281138911486867e-01 7.3632882733874638e+01 3.7562273122799667e+01 8.2631378626346773e+01 0 0 0
1534 3 -4.8086339292406666e-01 6.9438134592307264e+01 3.7700691200056767e+01 8.2618895047097922e+01 0 0 0
1549 4 1.3727444592185101e-01 7.3551702249286805e+01 3.8406059010001506e+01 8.3378035085934698e+01 0 0 0
1742 4 1.2712028681689067e-01 7.0579122096116095e+01 3.8009725838284290e+01 9.0209198553727774e+01 0 0 0
1649 4 1.9508412969019093e-01 6.9853119442652215e+01 3.7639724603686282e+01 8.1688707075368143e+01 0 0 0
1557 2 -1.8030829483872821e-01 7.5815299967627894e+01 4.2714696212414978e+01 8.2079522996903876e+01 0 0 0
1560 4 1.3521993044448880e-01 7.4874387737246622e+01 4.2145665309286827e+01 8.2353057959031162e+01 0 0 0
3443 5 -1.3487333973205867e-01 7.4496391806583901e+01 6.4715932240956533e+01 9.0545368558700417e+01 0 0 0
1547 2 -1.6535978756843225e-01 7.5043561863800164e+01 3.7723391315601958e+01 8.1939698358571462e+01 0 0 0
1559 4 1.5274684580916770e-01 7.6180516659258799e+01 4.2948871563668966e+01 8.3085571905203210e+01 0 0 0
1755 4 1.9441739132663630e-01 7.1145299155735927e+01 4.3424471625977290e+01 8.9863964925831937e+01 0 0 0
1548 4 1.5899468638457157e-01 7.2795101759788125e+01 3.7696081757675081e+01 8.1860642954821131e+01 0 0 0
1652 2 9.7594388493174339e-02 6.8570216988579475e+01 4.0139184859954256e+01 8.2131546856157556e+01 0 0 0
1713 4 1.0893749649643200e-01 7.0553225414451660e+01 4.3352089555886451e+01 8.1524184029451533e+01 0 0 0
1708 2 2.9923102340499070e-02 7.1364455364284723e+01 4.3471854167297579e+01 8.2313008108471337e+01 0 0 0
1741 4 1.7382527883112123e-01 7.2074328475810731e+01 3.7443071384078330e+01 8.9546534905562211e+01 0 0 0
1660 4 1.6780047600995174e-01 6.8574059143290413e+01 4.1655856682591420e+01 8.3702763165042654e+01 0 0 0
1552 4 1.5831866149630569e-01 7.5897520393999301e+01 3.7645116583404494e+01 8.2676719584675737e+01 0 0 0
2790 1 -5.7036359893634836e-01 7.6070694114643715e+01 7.4955942455975332e+01 8.2618719005605385e+01 0 0 0
2781 4 1.1194285512960048e-01 7.2611876883217064e+01 7.2120127264937707e+01 8.1304122385894587e+01 0 0 0
1737 2 -1.8316646311950810e-01 7.1579317812614832e+01 3.7586446379747812e+01 9.0550336742046440e+01 0 0 0
1883 4 1.3124102531312001e-01 6.9765198578113598e+01 4.0280330327657737e+01 9.0557170575331924e+01 0 0 0
1753 4 2.0246123360063814e-01 7.0840307810094643e+01 4.3548460112322651e+01 8.6681362215913936e+01 0 0 0
1568 4 1.2211131952927473e-01 7.4925443899997632e+01 4.6647277733527453e+01 8.2477962203701281e+01 0 0 0
1707 4 1.7786794469533285e-01 6.8813952816012304e+01 4.3703870629307829e+01 8.2827867377144557e+01 0 0 0
1751 2 -2.4652511055763246e-01 7.1102914682877810e+01 4.3955733125670690e+01 8.8877031095189494e+01 0 0 0
1786 4 1.1560485025942099e-01 7.3973059816376036e+01 4.4066201582003643e+01 8.4331298829558833e+01 0 0 0
1712 4 8.4883456383273395e-02 7.2087482700814832e+01 4.4041127632097684e+01 8.1682054663719583e+01 0 0 0
1756 4 1.4029818121721002e-01 7.2161482799928137e+01 4.4358692417296723e+01 8.8786080752447120e+01 0 0 0
1709 4 2.2350346770012086e-01 7.1083238716674302e+01 4.4367168361867449e+01 8.4341011169847064e+01 0 0 0
1782 2 1.0911000998110766e-02 7.3748447567161222e+01 4.4314977375952409e+01 8.5372593311819202e+01 0 0 0
1780 1 -5.0233787396652829e-01 7.2668977632394117e+01 4.5194356266796703e+01 8.5621831476944848e+01 0 0 0
1784 2 -1.4046784256385642e-02 7.5078085129930969e+01 4.4879797483498244e+01 8.6051767871178896e+01 0 0 0
1705 2 -1.9471758841848774e-01 7.0748106523092972e+01 4.4564443736729629e+01 8.3236197584614558e+01 0 0 0
1704 3 -4.2136759316417582e-01 6.8828629444373632e+01 4.4276913257957148e+01 8.5636634210489419e+01 0 0 0
1754 2 4.7983383059987500e-01 7.0151225151142071e+01 4.5101806309276725e+01 8.8922464304399028e+01 0 0 0
1787 4 1.4188788795414198e-01 7.5883768496181816e+01 4.5166961839735023e+01 8.5311668346137921e+01 0 0 0
1710 4 1.1974852700988964e-01 7.1262442990603631e+01 4.5582053023403148e+01 8.2977080216992036e+01 0 0 0
1783 4 7.8058768234069015e-02 7.4864602527520191e+01 4.5811752456027065e+01 8.7991916153380657e+01 0 0 0
1779 4 1.0757186145214757e-01 7.2686007695142578e+01 4.6018181447618034e+01 8.7771278962363070e+01 0 0 0
1775 2 8.9031500664355070e-02 7.3058489594015640e+01 4.6106921517374374e+01 8.6728695165109130e+01 0 0 0
1781 2 7.6381198270255815e-02 7.4656765477383061e+01 4.6101945930567958e+01 8.6907571497303721e+01 0 0 0
1703 2 -2.4155971839875065e-01 6.9201391739475170e+01 4.4721535365912828e+01 8.3067738352795971e+01 0 0 0
1761 4 1.7241569711390198e-01 6.9238519896785874e+01 4.7766347270623108e+01 8.8804024151356202e+01 0 0 0
1766 2 3.7757708310770027e-01 7.0808165652931919e+01 4.9238810550045741e+01 8.6434335864028654e+01 0 0 0
1757 1 -5.6111706846160569e-01 6.9994798317264568e+01 4.5986367907256728e+01 8.7809265747272121e+01 0 0 0
1773 4 1.6880159872754261e-01 7.2163055361500980e+01 4.7492019553605687e+01 8.5219759371097979e+01 0 0 0
1771 2 1.2713852189573499e-02 7.2746822969435186e+01 4.7517491637222882e+01 8.6188130629161705e+01 0 0 0
1778 1 -5.2582421585636108e-01 7.5195818687181358e+01 4.7332363247449038e+01 8.6364135793108389e+01 0 0 0
1774 2 -5.9134746627769580e-04 7.4148917239581081e+01 4.8239767108147220e+01 8.5965550203518731e+01 0 0 0
1776 4 1.3213840628982032e-01 7.4035391880093286e+01 4.8465899819185125e+01 8.4905979872325474e+01 0 0 0
1769 3 -4.5447409591575472e-01 7.1768982178775303e+01 4.8291317899821813e+01 8.7024119311367784e+01 0 0 0
1772 4 2.6637868496951900e-01 7.1161454070657726e+01 4.7527822429252652e+01 8.7483813554832494e+01 0 0 0
1777 4 1.4038350819658135e-01 7.4078516372502818e+01 4.9260641941932356e+01 8.6425781853732175e+01 0 0 0
2146 4 1.6286547535626497e-01 7.5714372527204972e+01 4.9271390485333676e+01 8.8058701306095259e+01 0 0 0
1706 4 1.5038283146154277e-01 6.8901168326740589e+01 4.5485500260078602e+01 8.2265361371283547e+01 0 0 0
1759 2 1.5071599642465872e-02 6.8983936253513150e+01 4.7014631752910446e+01 8.8029922575805969e+01 0 0 0
1558 2 -1.9071004819299331e-01 7.5475946605027957e+01 4.4033630605304644e+01 8.1404790909167687e+01 0 0 0
1764 4 2.2221704748722468e-01 6.9291194875683871e+01 4.7183335922660710e+01 8.5782728405929205e+01 0 0 0
1763 2 -2.6097081075858508e-01 6.9313004720227340e+01 4.9154223552797951e+01 8.6553751092960624e+01 0 0 0
1702 2 3.9326097441084362e-01 6.8626095025178969e+01 4.5042643629015345e+01 8.4419497573867503e+01 0 0 0
1564 2 -2.0246208714000974e-01 7.5796055286095282e+01 4.6553336882221366e+01 8.1721974848373392e+01 0 0 0
1760 2 -1.7111763794534096e-01 6.8826908568405912e+01 4.7723272996259567e+01 8.6650616949841719e+01 0 0 0
1758 1 -5.6019018733809167e-01 6.9592145159006080e+01 4.5196418272191885e+01 9.0061484348771955e+01 0 0 0
1919 4 1.3640971269792881e-01 7.2245656847969386e+01 4.7622001094910360e+01 8.9269104472074034e+01 0 0 0
1562 4 1.0509285180378145e-01 7.4423995603158247e+01 4.4297616203622297e+01 8.1613518850077156e+01 0 0 0
1788 3 -4.5355283353986697e-01 7.5792080519086880e+01 4.3760178685707288e+01 8.6764350003064607e+01 0 0 0
1923 4 1.4040465839608299e-01 7.3610859267725431e+01 4.5859494500981526e+01 9.0457754959989416e+01 0 0 0
1790 4 1.8091948299748975e-01 7.5858947269610312e+01 4.3932445697542263e+01 8.7768952611474717e+01 0 0 0
1917 2 -1.5720572132013602e-01 7.2512387740085742e+01 4.7808339944274856e+01 9.0333551404546810e+01 0 0 0
1768 4 1.4778031747313700e-01 6.8917786698894034e+01 4.9673239207617314e+01 8.7465052550813368e+01 0 0 0
1561 2 -1.8154633461228895e-01 7.6491491053656020e+01 4.5135989479369449e+01 8.1809290356002080e+01 0 0 0
1570 2 -1.7216643104582233e-01 7.6331721957777873e+01 4.9060053661467272e+01 8.1837869333712035e+01 0 0 0
2153 4 1.6796405785248208e-01 7.6269506043310813e+01 4.7211950427105684e+01 8.9896759882968141e+01 0 0 0
3276 5 -1.0473016818771723e-01 7.4963453354064356e+01 7.4946461438756430e+01 8.8028891761348689e+01 0 0 0
1920 4 1.5283868854682023e-01 7.3244172924890847e+01 4.8584213706365610e+01 8.9780032562630666e+01 0 0 0
2152 4 1.1012569277724474e-01 7.6503184205993378e+01 4.6125669284137601e+01 8.8668557585432680e+01 0 0 0
1767 4 1.5749072679161649e-01 6.8880385016853410e+01 4.9753782037904116e+01 8.5669183745308445e+01 0 0 0
1770 1 -5.2369940621765043e-01 7.1064106219715157e+01 5.0148034399500823e+01 8.5581756794732613e+01 0 0 0
1907 2 -1.9451955823431116e-01 7.1343895088941167e+01 5.2724121206594567e+01 9.0515200391273609e+01 0 0 0
2142 2 4.7994163607959239e-01 7.6491164475011971e+01 4.9857010374130212e+01 8.9978917181842618e+01 0 0 0
1583 4 1.5261469315613299e-01 7.5553909665647055e+01 5.5394524295315726e+01 8.3650287177123829e+01 0 0 0
1578 2 -1.7145320590918553e-01 7.5425111719180506e+01 5.4379486741639788e+01 8.4061473387186780e+01 0 0 0
1573 5 -1.1868239281593286e-01 7.6218544104150482e+01 5.0041997769829500e+01 8.3584871907950003e+01 0 0 0
2934 4 1.7228154504040460e-01 7.1325102275474578e+01 5.2207264671666472e+01 8.3410954653253157e+01 0 0 0
2935 4 1.2780241120859506e-01 6.9809458070861226e+01 5.2963121111484675e+01 8.3916358708312600e+01 0 0 0
2930 2 -1.8568667979025591e-01 7.0823272269120991e+01 5.3184475887341073e+01 8.3538741850130364e+01 0 0 0
2932 4 1.3463195130647740e-01 7.2602632387473207e+01 5.3458423268839731e+01 8.4880769637940404e+01 0 0 0
1576 5 -9.6009194202025513e-02 7.5121351695534628e+01 5.1805593370574513e+01 8.2721115754034301e+01 0 0 0
2928 4 1.2350847175976322e-01 7.0188069173696562e+01 5.3133327243282423e+01 8.6313938967309895e+01 0 0 0
2921 2 -1.9825656357540891e-01 7.0186544462580954e+01 5.5418485583079942e+01 8.6211330591301788e+01 0 0 0
2924 2 -2.0633731534517880e-01 7.0857811479228559e+01 5.3975848579492549e+01 8.6057739036877777e+01 0 0 0
2933 5 -8.2260444022205767e-02 7.0569617946076391e+01 5.4355785365562028e+01 8.1816579040766712e+01 0 0 0
2927 2 -1.6054452108533351e-01 7.1546582474053466e+01 5.3879032219073785e+01 8.4683278171644986e+01 0 0 0
2931 4 1.6219312709569872e-01 7.2005664002940790e+01 5.4935254713529680e+01 8.4403975755968077e+01 0 0 0
1591 4 1.1615502965004706e-01 7.3237555579189006e+01 5.5207494902564996e+01 8.9212430763161464e+01 0 0 0
1582 4 1.5500957621097777e-01 7.4338344173374509e+01 5.4112273618858588e+01 8.3883613293765620e+01 0 0 0
2929 4 1.3092763462130952e-01 7.1644071598152109e+01 5.3965580298096306e+01 8.6852126174508214e+01 0 0 0
2918 2 -1.8794496065430821e-01 6.8935771940821596e+01 5.5485149098034036e+01 8.5308318732899366e+01 0 0 0
2922 4 1.3647829617276508e-01 6.9225617318280939e+01 5.5317043859701378e+01 8.4226244477997824e+01 0 0 0
1584 2 4.7311310670208179e-01 7.4691775641266446e+01 5.5360012583829736e+01 8.6254284009063753e+01 0 0 0
1577 2 -1.8056520749130747e-01 7.6310117890898908e+01 5.3243267810883836e+01 8.3480471350640940e+01 0 0 0
1911 4 1.1980283679574659e-01 7.1035152865281162e+01 5.2877213446288941e+01 8.9466508118974431e+01 0 0 0
1587 1 -5.8085061912108937e-01 7.4770581668587397e+01 5.5076608812952387e+01 8.7650142942749255e+01 0 0 0
1581 2 -2.6150311215895866e-01 7.5701412618453730e+01 5.4448287735275478e+01 8.5616972276494678e+01 0 0 0
1589 2 5.5630698858839582e-02 7.3918517167760214e+01 5.5819487755612869e+01 8.8559464031887643e+01 0 0 0
1595 4 1.4866118995352290e-01 7.5041674768461107e+01 5.6452562632732814e+01 9.0505703642980791e+01 0 0 0
1585 4 1.7429741007088367e-01 7.5640224653461900e+01 5.3411455588813915e+01 8.6016465763312752e+01 0 0 0
1914 4 1.4023260840159385e-01 7.2671492289282739e+01 5.1060668338415297e+01 9.0270004500330899e+01 0 0 0
2926 4 1.2546339792384784e-01 6.9872700740327602e+01 5.5613135379051982e+01 8.7288373586264342e+01 0 0 0
3261 2 -1.8353740809773125e-01 7.3135677267601523e+01 6.9102288263464771e+01 8.7162165422743996e+01 0 0 0
1592 4 1.5044990926268856e-01 7.3033354890234733e+01 5.6393872191641869e+01 8.8117469237013879e+01 0 0 0
2925 4 1.5779088259307886e-01 7.0975753813214368e+01 5.6164404144098441e+01 8.5927448106703764e+01 0 0 0
1588 1 -5.5541428202868159e-01 7.3946791513818170e+01 5.6160895774545786e+01 8.5619135041266077e+01 0 0 0
1594 4 1.6163075480227923e-01 7.4039104619500023e+01 5.7704384118699792e+01 8.9751504192094274e+01 0 0 0
3232 2 3.4694245326396078e-01 7.0582979842626997e+01 5.8999953805607902e+01 8.8790069362805468e+01 0 0 0
3231 1 -5.0629396343193900e-01 7.1718994969142855e+01 5.8460240923572506e+01 8.9071827108998065e+01 0 0 0
3234 3 -4.4653907005740234e-01 6.9372808978928575e+01 5.8228842875681984e+01 8.8476725219671891e+01 0 0 0
2920 4 1.3785498335431270e-01 6.8698477120102183e+01 5.7686244182779376e+01 8.5013622370327596e+01 0 0 0
1590 2 -2.0118308936476517e-01 7.4712746034350729e+01 5.6821156688087918e+01 8.9500264345207938e+01 0 0 0
3239 4 1.4470998650154138e-01 7.2778033641420706e+01 6.0429017211495172e+01 8.7871626404234931e+01 0 0 0
3236 4 1.9930253546176865e-01 7.1082721365859499e+01 6.0790871003833239e+01 8.9976530832475646e+01 0 0 0
3233 2 -2.1940168860337136e-01 7.0746033979796536e+01 6.0547064231209433e+01 8.8880416827635955e+01 0 0 0
3349 4 1.8128688336781898e-01 6.8823994692398955e+01 5.9016383652290664e+01 8.7959961787077660e+01 0 0 0
3243 4 1.3517906191373355e-01 7.2011879405199437e+01 6.0116039674644355e+01 8.5831188596453984e+01 0 0 0
3242 4 1.3604022994720583e-01 7.0451998675922923e+01 6.0151132851089599e+01 8.6346483657956782e+01 0 0 0
3235 2 -1.7156156696630651e-01 7.1763691273503468e+01 6.1005852034563972e+01 8.7845544197810725e+01 0 0 0
2973 4 1.4905474466635657e-01 6.9463833351780835e+01 5.9934273246688406e+01 8.1707147449552963e+01 0 0 0
3238 2 5.0522831233081752e-02 7.1311132747905660e+01 6.0861304077985487e+01 8.6372211964573140e+01 0 0 0
3240 4 1.5627443162505036e-01 7.2060027135174607e+01 6.2068983907451809e+01 8.8072999401536151e+01 0 0 0
3237 4 1.9487243116161321e-01 6.9731750509282122e+01 6.1033815329653578e+01 8.8802838237675047e+01 0 0 0
3246 1 -5.9662746672607825e-01 7.1091199644331795e+01 6.1072136076656292e+01 8.3389865160161861e+01 0 0 0
3244 2 4.8213018602755447e-01 7.1166058188061442e+01 6.2030278412900067e+01 8.4222026436870735e+01 0 0 0
2980 4 2.9363941567465951e-01 7.1281786719594436e+01 6.1214170473200703e+01 8.1655009568481631e+01 0 0 0
3450 4 1.2841711068611195e-01 7.5175697327185532e+01 6.0824527192952829e+01 8.9681685624009361e+01 0 0 0
3241 1 -5.3198623756093033e-01 7.1086511999189327e+01 6.2098469964222531e+01 8.5648845562523505e+01 0 0 0
1597 4 1.6874299924214373e-01 7.5742772435506794e+01 5.7295416356666372e+01 8.7657324920363664e+01 0 0 0
1593 2 -2.1571901109768274e-01 7.5949744347097891e+01 5.7295797438158075e+01 8.8707878706822228e+01 0 0 0
1598 4 1.3211913942825257e-01 7.5989620811618693e+01 5.8456439041109135e+01 8.8849635505800393e+01 0 0 0
3350 4 1.6040245857325203e-01 6.9056947470717546e+01 5.8126306699520370e+01 9.0457231186602925e+01 0 0 0
2984 4 1.5406133711003078e-01 7.4011776511799923e+01 6.1898066171598394e+01 8.1474035550820730e+01 0 0 0
3447 2 -1.9178537659890965e-01 7.5080789862925684e+01 6.1821725143092380e+01 9.0298103251165927e+01 0 0 0
2985 4 1.0790617443039757e-01 7.3131989176477518e+01 6.3384257077020649e+01 8.1597708563781765e+01 0 0 0
3122 4 1.5045981990836252e-01 7.6431600374827383e+01 6.7012287935578698e+01 8.1689262774450697e+01 0 0 0
2785 4 1.2942696728481162e-01 7.2598065800334723e+01 7.3225151125390099e+01 8.3666346129481909e+01 0 0 0
2896 4 1.2684631921734904e-01 6.9151951599072618e+01 6.7581129039178734e+01 8.6485585262028891e+01 0 0 0
3253 5 -1.1283590890019955e-01 7.0259936458334565e+01 6.6700802673765793e+01 8.2981257696778925e+01 0 0 0
3248 4 1.6652640918494097e-01 7.1061512361409484e+01 6.4209275787901220e+01 8.4682053012250535e+01 0 0 0
3247 2 -1.8016550581873389e-01 7.0160664054869656e+01 6.3771280906479824e+01 8.2739954850104851e+01 0 0 0
3245 2 -2.3419984978666419e-01 7.1215108359787095e+01 6.3492637615039229e+01 8.3837408769192393e+01 0 0 0
3249 4 1.1393017416847621e-01 7.2351093934381865e+01 6.3710516358054925e+01 8.3422006871669765e+01 0 0 0
3446 5 -1.2485800741401837e-01 7.4717710765437872e+01 6.3615802662449575e+01 8.9075297432304112e+01 0 0 0
3250 2 -1.9403700971535923e-01 7.0665914819405756e+01 6.4957631172357338e+01 8.1889343812205937e+01 0 0 0
3252 4 1.7367792051775516e-01 6.9983257542268376e+01 6.2849805606576837e+01 8.2149395963467484e+01 0 0 0
3251 4 1.5915564581266298e-01 6.9159110045313454e+01 6.3989835019341669e+01 8.3225596400612133e+01 0 0 0
3430 4 1.0215637946833502e-01 6.9381266360906210e+01 6.7052165717743179e+01 8.9327784975854016e+01 0 0 0
3256 5 -1.0394579919360981e-01 7.2353453102128185e+01 6.7163963364452783e+01 8.3946963380926235e+01 0 0 0
3263 4 9.7746929354215376e-02 7.2831116833039403e+01 6.6983389591453019e+01 8.7614140493698628e+01 0 0 0
3259 4 1.0301785042448462e-01 7.1064199713935693e+01 6.6647382676266389e+01 8.6267662306279064e+01 0 0 0
2903 4 1.0926509972736327e-01 6.9102404064170500e+01 6.5512350691612255e+01 8.5132646884665590e+01 0 0 0
3258 2 -1.8802249011541214e-01 7.2863355074205259e+01 6.7659299747543756e+01 8.6699172761674205e+01 0 0 0
3262 4 1.3681049657576089e-01 7.3723251324809539e+01 6.7230997682110029e+01 8.6094585499898457e+01 0 0 0
3427 2 -1.6947505663713042e-01 6.9269819911448494e+01 6.8187117427997421e+01 8.9343476224146983e+01 0 0 0
3257 2 -1.9950088373572419e-01 7.1605418993421949e+01 6.7499828628502499e+01 8.5859855721225756e+01 0 0 0
3439 4 9.7056354698072334e-02 7.0725902287780883e+01 6.6025526211477555e+01 8.9900355246020325e+01 0 0 0
3254 4 1.1835127390841306e-01 7.1693957512253135e+01 6.4800945568206984e+01 8.1575569771939016e+01 0 0 0
2902 4 1.1817092075589961e-01 6.9324693233706256e+01 6.4833608154676270e+01 8.6597477582647414e+01 0 0 0
3438 4 1.1278474151012798e-01 7.2441804783807470e+01 6.6558920160489336e+01 8.9748267913561691e+01 0 0 0
3445 4 1.2973499848426437e-01 7.1808418152437412e+01 6.3872895544284304e+01 9.0458415487204221e+01 0 0 0
3260 4 1.2163135177022516e-01 7.0877561821908458e+01 6.8335601977951256e+01 8.5992848793637961e+01 0 0 0
3119 2 3.2742078829531188e-02 7.6409234395140658e+01 6.8112970239647510e+01 8.1698769903296707e+01 0 0 0
3124 4 1.6346936555461500e-01 7.5474774296089805e+01 6.8239581369586602e+01 8.3672922160977166e+01 0 0 0
3120 2 -1.8528504392084122e-01 7.6446376570878598e+01 6.8619178118161045e+01 8.3212884197489387e+01 0 0 0
3434 2 -1.9132079384737910e-01 7.1616606338084551e+01 6.6482844001895387e+01 9.0510836246067868e+01 0 0 0
2990 4 1.0745352178492798e-01 7.5295982172906676e+01 6.4034917806667281e+01 8.1771258792409668e+01 0 0 0
3099 4 1.3776267616200968e-01 6.8505718800109804e+01 7.1703844213668518e+01 8.5046538052339542e+01 0 0 0
3092 4 1.8972248649021223e-01 6.8776748608899112e+01 7.2195612621283047e+01 8.7630621935278000e+01 0 0 0
2779 2 4.6430009675030873e-02 7.2305224044492405e+01 7.3180108769513481e+01 8.1424259876913226e+01 0 0 0
3269 4 1.0209979451204999e-01 7.4179402738513431e+01 6.8550818055824877e+01 8.9162134731848255e+01 0 0 0
3429 4 1.4684939189444005e-01 6.9445446448141851e+01 6.8453762288907910e+01 8.8277750169249828e+01 0 0 0
3274 4 1.4580826658655360e-01 7.5987050723802554e+01 7.2157523721330278e+01 8.7950518711344515e+01 0 0 0
3126 2 3.4052408181217336e-01 7.6437048522921117e+01 7.0845081857493511e+01 8.4511029220203042e+01 0 0 0
2782 4 1.0169816981335557e-01 7.1262275678884919e+01 7.2831399869298451e+01 8.1803712424049024e+01 0 0 0
3097 2 -1.7994637853205739e-01 7.0668176753768023e+01 7.1097408862090916e+01 8.4790767066221136e+01 0 0 0
3266 4 1.0449002348303921e-01 7.2141266996059429e+01 6.9532741859933353e+01 8.7513265686384912e+01 0 0 0
3268 4 1.1160657777897330e-01 7.5287700064382463e+01 6.8999393286509758e+01 8.7785576691049442e+01 0 0 0
2788 4 1.2888777119959038e-01 7.4601313055833018e+01 7.2166582421018433e+01 8.2225814976808408e+01 0 0 0
3275 4 1.8833484572516679e-01 7.5102498190058967e+01 7.1066691245370905e+01 8.6765005767448770e+01 0 0 0
3087 2 -1.8431587720936196e-01 7.0188971785204274e+01 7.3554675898467735e+01 8.8531234942525771e+01 0 0 0
3103 5 -9.1078818396216329e-02 7.1980798733405010e+01 6.9571886379378682e+01 8.2750196630992832e+01 0 0 0
3270 2 -1.7826597189336474e-01 7.4931886794378102e+01 7.1757605470875546e+01 8.7633873250923372e+01 0 0 0
3591 4 1.4989078512808615e-01 7.2440522557840140e+01 7.4243235266593487e+01 8.9772468215384322e+01 0 0 0
3128 4 1.9503788843706382e-01 7.5652863192167331e+01 7.0433885903988056e+01 8.2443976847349475e+01 0 0 0
3090 4 1.2635130751533014e-01 7.0722402819098463e+01 7.4495472646062211e+01 8.8191580280503160e+01 0 0 0
3095 4 1.5846174923613862e-01 6.9388033747598712e+01 7.4156593131876420e+01 8.5989560943855494e+01 0 0 0
2784 4 2.0823260768417010e-01 7.2932841851796624e+01 7.4785386595728937e+01 8.2977729482931721e+01 0 0 0
3273 5 -1.0969707790458919e-01 7.3543940890148548e+01 7.3154874526601759e+01 8.7419626283201708e+01 0 0 0
3089 4 1.6357030715161092e-01 7.0997246884603214e+01 7.3007539172687132e+01 8.9078123459784265e+01 0 0 0
3093 4 1.2968962953012639e-01 7.0477592335001702e+01 7.1673954844326019e+01 8.7458023132934798e+01 0 0 0
2780 2 -1.8438214795670557e-01 7.3045858061429669e+01 7.3698969173063446e+01 8.2711188369441146e+01 0 0 0
3088 2 -1.6771479796489788e-01 6.9839508311568025e+01 7.2582362272586650e+01 8.7443722747593952e+01 0 0 0
3094 2 -1.7980773664398758e-01 6.9566184930610703e+01 7.2125292387083405e+01 8.4867134790154154e+01 0 0 0
3091 2 -1.8883548922838400e-01 6.9951204722831520e+01 7.3170193053596762e+01 8.6044039403820022e+01 0 0 0
2786 2 3.6500908540920241e-01 7.5408725365995394e+01 7.4224118300546905e+01 8.1801354918182412e+01 0 0 0
2787 4 1.8552186182404046e-01 7.5035182976367437e+01 7.3187861417363706e+01 8.3613858233992374e+01 0 0 0
3102 4 1.3208053369723094e-01 7.0800443266771438e+01 7.0677575689379537e+01 8.5793317934483525e+01 0 0 0
3105 4 1.1380268259755556e-01 6.9449718878642059e+01 7.0494610378140038e+01 8.3158066928424105e+01 0 0 0
2783 2 -2.1351675639623180e-01 7.4516280804751531e+01 7.3270728273380030e+01 8.2593143946731360e+01 0 0 0
3272 4 1.3018699261360858e-01 7.4932514100408838e+01 7.0843197354706831e+01 8.9551529407005020e+01 0 0 0
3123 2 -1.8721795353539547e-01 7.6514904743222132e+01 7.0113600334275134e+01 8.3159864643086152e+01 0 0 0
3130 1 -5.6808589827579348e-01 7.5209720678187423e+01 7.0991672802850715e+01 8.4737755109752285e+01 0 0 0
3271 4 1.8531884433825696e-01 7.3332685133837757e+01 7.1018282614119926e+01 8.9033352339618872e+01 0 0 0
3267 2 -2.0278572051425531e-01 7.4375611196388846e+01 7.0772145459854002e+01 8.8641965935529441e+01 0 0 0
3264 2 -1.9890234863849959e-01 7.4302422496994154e+01 6.9284917751967257e+01 8.8210219397582463e+01 0 0 0
3101 4 1.3590586310667563e-01 7.1657007115072091e+01 7.1519241294992199e+01 8.4587924942551567e+01 0 0 0
3428 2 -1.6723178535240824e-01 7.0393231925905340e+01 6.8831824590151044e+01 9.0123459831987560e+01 0 0 0
3100 2 -1.7668362673038604e-01 7.0258679144036421e+01 7.0039647146228532e+01 8.3781812892997209e+01 0 0 0
3433 4 1.2163432073255240e-01 7.1067714344610835e+01 6.9343632759600084e+01 8.9384762751342606e+01 0 0 0
3098 4 1.3456801417782993e-01 6.9358686918351339e+01 7.2712030109666841e+01 8.3897433369786626e+01 0 0 0
3104 4 1.4284129346456223e-01 6.9680378917191462e+01 6.9174340057504409e+01 8.4203475036326282e+01 0 0 0
3096 4 1.4659747061384201e-01 7.1035192013434497e+01 7.3501543007379226e+01 8.5892996460366433e+01 0 0 0
3265 4 1.6065985116145154e-01 7.3321371587128283e+01 6.9750957623880907e+01 8.6236052418546436e+01 0 0 0
2157 4 1.4344022995343106e-01 7.5885518823132330e+01 4.3294198276187650e+01 9.0290013461947268e+01 0 0 0
1913 5 -8.7032736333896646e-02 7.0109057957421655e+01 4.9758372718835460e+01 9.0413999838195622e+01 0 0 0
1555 4 1.5719385972103520e-01 7.4395456181491483e+01 3.9690032796154554e+01 8.1182400227385045e+01 0 0 0
740 2 -1.9398445984805274e-01 7.5573059072814885e+01 4.1708668003857092e+01 9.8534588592161725e+01 0 0 0
739 2 4.4927800049966576e-02 7.4429939116896037e+01 4.2631801228778265e+01 9.9079206058483237e+01 0 0 0
1942 4 2.9404282738410203e-01 7.4771922102341733e+01 3.9141897156869234e+01 9.4629441239667869e+01 0 0 0
1939 3 -4.7403144372967609e-01 7.4051147809539003e+01 3.8594390092896298e+01 9.4033447277316228e+01 0 0 0
738 1 -5.9287144430100913e-01 7.2443716372960210e+01 4.2825535201884435e+01 9.6865081727070745e+01 0 0 0
1934 4 1.5392113324263598e-01 7.1927009134413211e+01 4.1006873212502803e+01 9.2796024704091266e+01 0 0 0
1930 2 -1.8098081339363531e-01 7.2413929124688096e+01 4.1641969458597508e+01 9.3619909753676467e+01 0 0 0
743 2 -2.5378696762400788e-01 7.5152842421575457e+01 4.0261884350672233e+01 9.8229020925135458e+01 0 0 0
1929 2 6.5516174823825366e-02 7.1450393327567596e+01 4.2865488501890518e+01 9.4013659848369088e+01 0 0 0
1936 2 3.6394691978280813e-01 7.2796700969429722e+01 3.9209002189639435e+01 9.4383162287932024e+01 0 0 0
1933 2 -2.3329437958994312e-01 7.2614718068523331e+01 4.0664400832507916e+01 9.4780943725620290e+01 0 0 0
1940 1 -5.5691728215456848e-01 7.1703290724339141e+01 3.8602948414935476e+01 9.4608695356717647e+01 0 0 0
1931 4 1.3979303085311873e-01 7.0434513671507418e+01 4.2484569028756304e+01 9.3707344834437663e+01 0 0 0
6288 4 1.2796030150007429e-01 7.6006745406983242e+01 3.9115491729674375e+01 9.1798051581859056e+01 0 0 0
1935 4 1.9022786732810981e-01 7.3398913858659554e+01 4.1971591412349355e+01 9.3137984982289311e+01 0 0 0
1937 4 1.8624814382837582e-01 7.3438715463791880e+01 4.0995057592961452e+01 9.5435693094962289e+01 0 0 0
1938 4 1.8324276541808313e-01 7.1702642769139203e+01 4.0745841665123848e+01 9.5509928325216023e+01 0 0 0
2188 4 1.5091827850232475e-01 7.0016092509733213e+01 4.2959092509603501e+01 9.8884951140496213e+01 0 0 0
1932 4 1.7268195799584807e-01 7.1150652016795490e+01 4.2767195790144584e+01 9.5079799127607146e+01 0 0 0
748 4 1.6808351905102634e-01 7.4090931589406637e+01 4.0217051515955106e+01 9.7832316593437596e+01 0 0 0
747 4 1.0534771753121608e-01 7.4946878200145676e+01 3.9674682432849039e+01 9.9185899696171333e+01 0 0 0
1888 4 1.9413647871048401e-01 6.9232493224483491e+01 3.9476936534594451e+01 9.4678462791681142e+01 0 0 0
2179 2 3.6797343323353265e-01 6.9739464552490588e+01 3.9962186938666257e+01 9.8491947984318188e+01 0 0 0
1740 2 -1.7805134391499000e-01 7.2373613061387445e+01 3.8558747607905154e+01 9.1369092248104579e+01 0 0 0
1744 4 1.6914035726690455e-01 7.1680132011294475e+01 3.9067220928503900e+01 9.2130187316986337e+01 0 0 0
2183 2 -1.7778483336975312e-01 6.9402096489339527e+01 4.2435001188691494e+01 9.8039788859143343e+01 0 0 0
2187 4 1.9660629117592235e-01 7.0182836805903236e+01 4.2276559622669602e+01 9.7221508036925172e+01 0 0 0
2178 3 -4.3245241344774832e-01 6.9649293902772726e+01 3.8938027751490282e+01 9.7435727309640356e+01 0 0 0
1745 4 1.6474575491345889e-01 7.3184107047232644e+01 3.7942754586520422e+01 9.1904455161398431e+01 0 0 0
2181 2 -2.5609648792996015e-01 6.8818075094983811e+01 4.1173105733862272e+01 9.8644032895165523e+01 0 0 0
2180 4 1.9658097910734931e-01 6.8957849774102669e+01 3.9270161821678265e+01 9.6795031215109461e+01 0 0 0
741 4 1.1052484381361583e-01 7.3557058779086844e+01 4.1948388853884609e+01 9.9272950834409585e+01 0 0 0
2159 4 1.4429119765536716e-01 7.5706006398144240e+01 4.1411709536687070e+01 9.1619517428854721e+01 0 0 0