LAMMPS data file via write_data, version 23 Jun 2022, timestep = 1000000

8160 atoms
5 atom types

70.21238964472587 99.18761035522238 xlo xhi
29.829877384325016 120.1701226156329 ylo yhi
81.75857541758737 118.24142458242736 zlo zhi

Masses

1 15.999
2 12.011
3 14.007
4 1.008
5 32.06

Atoms # charge/kk

1711 1 -5.5098345163279960e-01 7.5762657446598212e+01 3.2495880157295083e+01 8.5320196531413274e+01 0 0 0
1714 2 4.5745593025302983e-01 7.6093434480202049e+01 3.1613090383715399e+01 8.4177934003382177e+01 0 0 0
1716 1 -5.9431501791721131e-01 7.5976556585213700e+01 3.1802422273233017e+01 8.2945286600578200e+01 0 0 0
1670 2 -1.7357113695604912e-01 7.1288113411334024e+01 3.9160895839457211e+01 8.2327663679773877e+01 0 0 0
1708 2 3.5534021545530044e-02 7.5283334730041332e+01 3.3814879323369780e+01 8.5056053629276477e+01 0 0 0
1707 4 1.2850793919232431e-01 7.2952944335003281e+01 3.5327620975771168e+01 8.4294682663932534e+01 0 0 0
1709 4 1.4793332198598061e-01 7.3366038435853454e+01 3.3250781636428052e+01 8.5990963416601730e+01 0 0 0
1705 2 -1.9160167287103835e-01 7.3991510931107243e+01 3.4215079465069500e+01 8.5864919398088873e+01 0 0 0
1703 2 -2.5884066183865911e-01 7.3227109710120061e+01 3.5424192375620862e+01 8.5391395082115210e+01 0 0 0
1713 4 1.5030199746550546e-01 7.5074746204743974e+01 3.3991454188365026e+01 8.3924786321224516e+01 0 0 0
1702 2 3.8479377482905935e-01 7.1983949409545986e+01 3.5572360021557074e+01 8.6280361260720369e+01 0 0 0
1704 3 -4.1510912401257494e-01 7.1040359072188821e+01 3.4480218318236567e+01 8.6429052881076416e+01 0 0 0
1710 4 1.9483426351728450e-01 7.4313085302739580e+01 3.4309066888273854e+01 8.6940073378254283e+01 0 0 0
1701 1 -5.3509906590189460e-01 7.1950778715416320e+01 3.6663771234985710e+01 8.6946019882787837e+01 0 0 0
1706 4 1.4039379263859794e-01 7.3802184644789207e+01 3.6378396507691448e+01 8.5441200137737695e+01 0 0 0
1821 2 -5.2103681069640946e-03 7.1084540117214289e+01 3.3873548849744544e+01 8.7831624544992266e+01 0 0 0
1648 2 -1.3209876334993383e-02 7.1826139135382988e+01 3.1079070289924712e+01 8.2077778316620169e+01 0 0 0
1823 4 1.6922567541632808e-01 7.1989026006968700e+01 3.4477619134409039e+01 8.8223866584259312e+01 0 0 0
1757 1 -5.8042008547331225e-01 7.5070117394689319e+01 3.5387839233007767e+01 8.8676353478687602e+01 0 0 0
1748 2 -1.7775572205115234e-01 7.6076439484630825e+01 3.2572024121385610e+01 8.9354356026993003e+01 0 0 0
1747 2 -1.6585012456902118e-01 7.6434243976862149e+01 3.1171949703048860e+01 8.8778074725574484e+01 0 0 0
1754 2 4.9196850823532734e-01 7.6351344379189541e+01 3.5061514737728430e+01 8.9168056094689661e+01 0 0 0
1830 1 -5.0131263512005786e-01 7.2571264639382832e+01 3.2153227017447023e+01 8.8849162837197809e+01 0 0 0
1825 2 6.5671815000653042e-02 7.1401269817952894e+01 3.2327454735502556e+01 8.7992918146899314e+01 0 0 0
1759 2 6.1602629488423800e-02 7.4717641326727389e+01 3.6770042904207422e+01 8.8921495503137152e+01 0 0 0
1829 4 1.0250417651646250e-01 7.1362161341244459e+01 3.1850964180407640e+01 8.6947549680337488e+01 0 0 0
1653 4 1.7881961653560058e-01 7.3933042533705489e+01 3.1206153757215443e+01 8.2890291900547481e+01 0 0 0
1651 2 3.2267673384970023e-03 7.2967944368084488e+01 3.1847114174597394e+01 8.2873066589181605e+01 0 0 0
1655 1 -4.8768834723789350e-01 7.3115781717282886e+01 3.3159837683855891e+01 8.2286192077201690e+01 0 0 0
1764 4 1.6526792446028285e-01 7.5123136283550892e+01 3.7340842500206371e+01 8.6750400086969734e+01 0 0 0
1712 4 1.1200737882696103e-01 7.5943691000347769e+01 3.4668801440925627e+01 8.5184202652326761e+01 0 0 0
1756 4 1.9088099792868257e-01 7.6281979878892798e+01 3.3736280136693978e+01 8.7460211969623884e+01 0 0 0
1760 2 -1.8513488058429550e-01 7.5049253207129027e+01 3.7777756402998833e+01 8.7776774590268644e+01 0 0 0
1671 4 1.0848068556832173e-01 7.2534553458546000e+01 3.7891642570334241e+01 8.3583286195268840e+01 0 0 0
1765 4 1.2636179566657896e-01 7.4166702955021634e+01 3.8451293312722960e+01 8.7684073781562262e+01 0 0 0
1763 2 -2.4969888950436636e-01 7.6248272185275212e+01 3.8720285005186909e+01 8.8140868080635954e+01 0 0 0
1668 2 -2.5456111883438248e-01 7.1455589373156954e+01 3.8073241036251716e+01 8.3319682908692599e+01 0 0 0
1767 4 1.2428600248570643e-01 7.5983891656936549e+01 3.9801449065588727e+01 8.7992864816766186e+01 0 0 0
1768 4 1.0567015801701928e-01 7.6503713800251404e+01 3.8658942640716241e+01 8.9240953461327209e+01 0 0 0
1654 4 1.0927638704585606e-01 7.2666632243066999e+01 3.1702622882704205e+01 8.3908501608746207e+01 0 0 0
1761 4 1.0633899433076965e-01 7.5170758587324528e+01 3.7293709396230824e+01 8.9881739967433887e+01 0 0 0
2013 2 3.8765539154030526e-02 7.0650356541103463e+01 3.8413489237591278e+01 8.9497703210909108e+01 0 0 0
1762 4 1.1180698736806222e-01 7.3597454655313541e+01 3.7025271892257692e+01 8.9137753935888881e+01 0 0 0
2018 4 1.4587262232763454e-01 7.1521235671401371e+01 3.8551656749182527e+01 8.8796671007121489e+01 0 0 0
1832 2 -8.8866165539009650e-03 7.2210006435859754e+01 3.1623817134143305e+01 9.0121082963470840e+01 0 0 0
1749 4 1.3733201474414525e-01 7.5648091810892254e+01 3.0941912552210500e+01 8.7962399680744824e+01 0 0 0
1753 4 1.6686571994893670e-01 7.5008268306062092e+01 3.2719430467275075e+01 8.9389840566499558e+01 0 0 0
1750 4 9.9377192987664398e-02 7.5860785566673371e+01 3.0366647385192906e+01 8.9300523620268706e+01 0 0 0
1650 4 1.6093378026217639e-01 7.0933646872962143e+01 3.0710057255178864e+01 8.2736039312643072e+01 0 0 0
1751 2 -2.1643533252612429e-01 7.6693081440811355e+01 3.3708347555123424e+01 8.8495126785017206e+01 0 0 0
1569 4 1.1008597039004760e-01 7.5911494799646178e+01 3.7325385502656573e+01 8.2764864897045626e+01 0 0 0
1664 4 1.4459569998111349e-01 7.1537432539580138e+01 3.4616804555860206e+01 8.3296068504816986e+01 0 0 0
1770 1 -5.7387750464642961e-01 7.7366674881276566e+01 3.8798722103831537e+01 8.6170660058143312e+01 0 0 0
1834 2 -8.5186091068900037e-03 7.0699221828209787e+01 3.1183590506119160e+01 9.0035339890436433e+01 0 0 0
1564 2 -2.0305765472799192e-01 7.6944228608685279e+01 3.7376355462579397e+01 8.2309949109108416e+01 0 0 0
1752 4 1.2559750447869017e-01 7.6470914688187079e+01 3.2605141378395075e+01 9.0425515407960106e+01 0 0 0
1715 2 -2.4162524052767068e-01 7.6057102663756694e+01 3.0271878326099117e+01 8.4876588819637433e+01 0 0 0
1574 4 1.7631875261231095e-01 7.7110449399798156e+01 3.9126580871263535e+01 8.4045890662614269e+01 0 0 0
1675 4 1.4107221242880633e-01 7.1898745138342420e+01 4.0123262200764870e+01 8.2770568613298352e+01 0 0 0
1665 3 -4.4561058068811582e-01 7.0832050092113647e+01 3.5849223487070269e+01 8.1807842909776070e+01 0 0 0
1661 2 -4.2515618055822338e-03 7.1042829590702098e+01 3.4443699573861345e+01 8.2254630410413128e+01 0 0 0
1567 2 -1.8365585091330996e-01 7.7411916532150428e+01 3.8768502409844061e+01 8.1900586663314428e+01 0 0 0
2014 4 1.1507671827156446e-01 7.1963274758827140e+01 3.6783375887229994e+01 9.0452365419057017e+01 0 0 0
1822 4 1.8615333895799080e-01 7.1300495204873911e+01 3.3647005503087442e+01 8.5764666855897673e+01 0 0 0
1758 1 -5.9407870826579234e-01 7.7278616266124857e+01 3.5601371813152191e+01 8.9882041590245848e+01 0 0 0
1718 4 1.5776469938689414e-01 7.5381450150345799e+01 3.0223520715264929e+01 8.5775504155060617e+01 0 0 0
1570 2 -1.7957730929608559e-01 7.7507520581172429e+01 3.9653399528471041e+01 8.3145653866585164e+01 0 0 0
1835 4 1.0434200123020120e-01 7.2766437737775291e+01 3.0735992374334742e+01 9.0558436831651221e+01 0 0 0
1766 2 3.7977401063043253e-01 7.7486086503883783e+01 3.8303080446933635e+01 8.7360397341053755e+01 0 0 0
1560 4 1.9496147475761103e-01 7.7126443844042271e+01 3.3504601513700806e+01 8.2458192166125684e+01 0 0 0
1925 4 1.7458615560311253e-01 7.8709771846629067e+01 3.3822464357032949e+01 9.4408389864821260e+01 0 0 0
2010 2 -1.8497456633190007e-01 7.1025875124763985e+01 3.7435899194057143e+01 9.0693925996931114e+01 0 0 0
1672 4 1.8841239475101307e-01 7.1069335334723391e+01 3.8405794914588817e+01 8.4307120705331343e+01 0 0 0
1879 4 1.2875040567347365e-01 7.3568268973755693e+01 2.9991345862513811e+01 9.6369255036677941e+01 0 0 0
1666 2 3.3447201910141083e-01 7.0687181119732486e+01 3.6800473794376195e+01 8.2927902767142243e+01 0 0 0
1575 4 1.4767155056704195e-01 7.8555340330570289e+01 3.9780004911092256e+01 8.3571115766987688e+01 0 0 0
5915 4 9.1637955575786162e-02 8.0753439305198640e+01 2.9848940396244739e+01 8.4375466370131946e+01 0 0 0
5448 2 5.9455373894315870e-02 8.3118456261961313e+01 3.1127087070109344e+01 8.1824915248066660e+01 0 0 0
1568 4 1.2167171226808787e-01 7.7673762355505488e+01 3.6909375267348238e+01 8.3034047825021034e+01 0 0 0
1721 4 1.7219031595395334e-01 7.7961270925826511e+01 3.0702466731654365e+01 8.5907558499812993e+01 0 0 0
1755 4 2.0556863683552318e-01 7.7801679188099271e+01 3.3653655759808935e+01 8.8271675918895752e+01 0 0 0
1559 4 1.2376995653464214e-01 7.7965545552492571e+01 3.5046957675732926e+01 8.2829625906354721e+01 0 0 0
1772 4 2.5443072420540830e-01 7.8365597846895582e+01 3.7087073295701998e+01 8.8787709011966371e+01 0 0 0
1746 5 -9.7833230780896827e-02 7.8407687749584994e+01 3.0825079230945750e+01 8.8401898152444133e+01 0 0 0
5456 1 -5.7019404484290881e-01 8.3442119738667643e+01 3.3612199833380487e+01 8.3315713965662042e+01 0 0 0
1769 3 -4.7505053980420192e-01 7.8549368709544993e+01 3.7459074965051428e+01 8.7839919049231128e+01 0 0 0
1773 4 1.6935699465977197e-01 7.8923464258676034e+01 3.6551423703513841e+01 8.5937574686293942e+01 0 0 0
1777 4 1.2731562479744790e-01 8.0301144362677476e+01 3.8856916620726317e+01 8.7060337038918291e+01 0 0 0
1776 4 1.1497575943403918e-01 8.0430027122613325e+01 3.8235028029322621e+01 8.5517107998231452e+01 0 0 0
1774 2 8.7573670103380848e-03 8.0669378562489726e+01 3.7896437480025561e+01 8.6551997843294060e+01 0 0 0
1771 2 1.0503225471475355e-02 7.9525450944450213e+01 3.6822737885425326e+01 8.6822272731281117e+01 0 0 0
1779 4 1.4539912625647733e-01 8.0032612252564164e+01 3.5483008601366762e+01 8.8474014177983534e+01 0 0 0
1775 2 1.0385316079825195e-01 8.0252644483335402e+01 3.5580632464388763e+01 8.7370817752013480e+01 0 0 0
1778 1 -5.1902465516400387e-01 8.1939904751954487e+01 3.7279509348018721e+01 8.6823234849750989e+01 0 0 0
1787 4 1.7170576261483175e-01 8.2585108734204269e+01 3.5413420086921029e+01 8.5256333399974835e+01 0 0 0
1781 2 7.0431986701738614e-02 8.1806412495067732e+01 3.5921035887976053e+01 8.7323057338378703e+01 0 0 0
1784 2 -1.4988261932678741e-03 8.2344426464438001e+01 3.4879366886565627e+01 8.6273229118745022e+01 0 0 0
1788 3 -4.2105337784155855e-01 8.3595926355188197e+01 3.4219535096511599e+01 8.6760237557567521e+01 0 0 0
1790 4 3.1469914553284212e-01 8.3254618431090137e+01 3.3504580161898751e+01 8.7507218550069027e+01 0 0 0
5920 4 2.1337797883035176e-01 8.2253162352880409e+01 3.0853483731129597e+01 8.5412187994649884e+01 0 0 0
1783 4 1.1722515704529798e-01 8.2250616732639131e+01 3.5640641136501557e+01 8.8326728539161365e+01 0 0 0
1782 2 -3.8272507876902439e-04 8.1164816607191312e+01 3.3886194670519629e+01 8.6065723428238158e+01 0 0 0
1786 4 1.3881188731038169e-01 8.1177829509480873e+01 3.3411079874628854e+01 8.4988918720162062e+01 0 0 0
1780 1 -4.6950032678794107e-01 7.9917646359689172e+01 3.4422633080688115e+01 8.6610056092951453e+01 0 0 0
1785 4 1.7109669794531882e-01 8.1517456678582107e+01 3.2913021189473717e+01 8.6556211231498310e+01 0 0 0
5927 4 1.5913034982333624e-01 8.1972084280818052e+01 3.1257304401491581e+01 9.0130774751411906e+01 0 0 0
5922 1 -5.7102720314742372e-01 8.3051683890856296e+01 3.1803833969345316e+01 8.7759652705791879e+01 0 0 0
5919 2 3.7130688112585775e-01 8.2902006931299496e+01 3.0566113730930084e+01 8.7399354369401934e+01 0 0 0
5918 3 -4.5300629032698425e-01 8.2893296873448918e+01 3.0223481988782655e+01 8.6014382666555960e+01 0 0 0
5923 2 -1.7186552471609204e-01 8.2732424051948058e+01 3.0375616374755630e+01 8.9975133959386227e+01 0 0 0
5452 4 1.3047098610830635e-01 8.3833431546579291e+01 3.0644885028585740e+01 8.2526528892729104e+01 0 0 0
5928 4 1.7429185485746831e-01 8.3776085044349415e+01 3.0933531247378792e+01 8.9979832179347838e+01 0 0 0
1743 5 -8.0361925078015289e-02 7.9547838587593048e+01 3.2617456941325081e+01 9.0075662251657818e+01 0 0 0
6289 4 1.2761237244957746e-01 8.1601378064758791e+01 3.6884043748727770e+01 9.0497181706316184e+01 0 0 0
6290 4 1.3154210099219432e-01 7.9842055772540292e+01 3.7133341243450218e+01 9.0246556696439356e+01 0 0 0
5453 4 1.3870381419820163e-01 8.2343843004845269e+01 3.1213814058630490e+01 8.2698321205826488e+01 0 0 0
1557 2 -1.7667799968132872e-01 7.7651474193035696e+01 3.4336585317488058e+01 8.1961342114146092e+01 0 0 0
1798 4 1.9640009156267096e-01 8.4030949149833148e+01 3.7143454721625730e+01 8.7956991693886508e+01 0 0 0
2158 4 1.1966378316872375e-01 8.1606871993820434e+01 3.9199382017896923e+01 9.0601615742587470e+01 0 0 0
6284 5 -8.9683956507934273e-02 8.1377345725888176e+01 3.4142522799831227e+01 9.0851946291910878e+01 0 0 0
1797 4 1.4652828673746893e-01 8.4337382470770905e+01 3.7869684874726396e+01 8.6424243828597270e+01 0 0 0
1809 4 1.3327963111768634e-01 8.3645367496951351e+01 3.6627686477956615e+01 9.0389413674339309e+01 0 0 0
1722 4 1.2817957381020564e-01 7.8091928131371290e+01 3.0156553385190247e+01 8.4217788410356903e+01 0 0 0
5454 2 4.8299839894642260e-01 8.3531921676034870e+01 3.3509074794891163e+01 8.2046253202311078e+01 0 0 0
1717 2 -1.7340581818992801e-01 7.7551263734653674e+01 2.9991751310265325e+01 8.5196943854417967e+01 0 0 0
1836 4 1.0621207077963923e-01 7.2379929844350201e+01 3.2247700039997483e+01 9.0996007246487693e+01 0 0 0
2159 4 1.3813927962339170e-01 7.9493459174722588e+01 3.8184261954429488e+01 9.2603778760469780e+01 0 0 0
2167 4 9.7548731453644996e-02 7.3975417541668961e+01 3.0071358237642762e+01 9.9003765958276745e+01 0 0 0
2048 2 3.3476355667006116e-02 7.0217382803269118e+01 3.4277257456872086e+01 9.9984411671443269e+01 0 0 0
1996 4 1.3636948831670392e-01 7.0507167345288607e+01 3.0460162955534361e+01 9.2558063711763950e+01 0 0 0
2049 4 1.6344578456016554e-01 7.1248533441272073e+01 3.2339663731185759e+01 9.9536955642612057e+01 0 0 0
2199 4 1.5333602627806339e-01 7.0733281851057797e+01 3.9428698316628392e+01 9.4222024895710945e+01 0 0 0
2164 2 1.1493638137636296e-03 7.3651115853242871e+01 3.1103193900408129e+01 9.9410456080841456e+01 0 0 0
1889 4 2.0343510328785797e-01 7.1485123700138928e+01 3.4567170182337378e+01 9.4130589340263498e+01 0 0 0
2200 4 1.1818070034990952e-01 7.1132419435579649e+01 3.9927382937494947e+01 9.5969857569260924e+01 0 0 0
1892 4 1.7395228483146080e-01 7.1981165106711245e+01 3.5537067791029450e+01 9.7023225694656091e+01 0 0 0
1887 2 -1.4435897002492185e-01 7.1390767759199264e+01 3.5754869178889038e+01 9.6045802041291324e+01 0 0 0
1886 1 -6.4083809429521876e-01 7.4179086144564948e+01 3.4550117454246511e+01 9.6031257017094802e+01 0 0 0
1891 4 1.5762644532594269e-01 7.1463255446617254e+01 3.6894118531053188e+01 9.5976984249053316e+01 0 0 0
1888 4 1.8237847582649691e-01 7.2695272760756296e+01 3.5874473674771743e+01 9.4203775295864062e+01 0 0 0
2194 1 -5.6548607513319549e-01 7.3790147152534203e+01 3.8315071733966114e+01 9.3716644156589965e+01 0 0 0
1885 2 -2.5565702025719150e-01 7.2181968845924573e+01 3.5121600815748366e+01 9.4809346756622389e+01 0 0 0
1880 4 1.9580756344401934e-01 7.1992654138411623e+01 3.0705438441613165e+01 9.5887006599526003e+01 0 0 0
1883 4 1.6229225666565986e-01 7.4521696769995771e+01 3.1841156654881850e+01 9.5990412564383064e+01 0 0 0
1875 2 -1.7745573760774061e-01 7.3026986395979108e+01 3.0445406409528971e+01 9.5461613184393528e+01 0 0 0
1878 2 2.0614881052434350e-02 7.3820948630052854e+01 3.1732371957058685e+01 9.5147695633369636e+01 0 0 0
1881 1 -5.6418728439698995e-01 7.2875062128899742e+01 3.2863782702192701e+01 9.4847212700656513e+01 0 0 0
1920 4 1.4976657464826129e-01 7.6203852476049633e+01 3.5629047169453010e+01 9.2223825070775135e+01 0 0 0
1884 2 5.1853176962706626e-01 7.3146410945405890e+01 3.4114335268859598e+01 9.5402080871179265e+01 0 0 0
2168 1 -4.8030900182637792e-01 7.3618740150113723e+01 3.2276300940488561e+01 9.8587990166422500e+01 0 0 0
2173 4 1.3090366022710589e-01 7.4327019805331275e+01 3.4300718290200066e+01 9.9215236274273380e+01 0 0 0
1923 4 1.5570664362297065e-01 7.5607035952870731e+01 3.3364556419983884e+01 9.3814415009188238e+01 0 0 0
2171 2 8.6896584018384529e-02 7.4707369718131389e+01 3.3212497933563363e+01 9.9026364717000490e+01 0 0 0
2191 4 1.2481310509333571e-01 7.5895704393826122e+01 3.7856528748141734e+01 9.6055772517890318e+01 0 0 0
2190 4 1.5842839576150955e-01 7.4781100528108652e+01 3.6728413704065893e+01 9.5683000616311361e+01 0 0 0
2177 4 1.5574806708909034e-01 7.5684173197635332e+01 3.2574419221365154e+01 9.7155310691322754e+01 0 0 0
2174 2 3.5514983052731909e-02 7.5907372533654495e+01 3.3203869954404063e+01 9.8062567632858659e+01 0 0 0
2188 4 1.5814289751726851e-01 7.4156960649008226e+01 3.6190260665692328e+01 9.7789078216541384e+01 0 0 0
2179 2 3.7974273296645172e-01 7.6450355405507963e+01 3.5619830542394872e+01 9.8541658579194262e+01 0 0 0
2183 2 -1.9628129725140678e-01 7.4615968812471394e+01 3.7214587392139450e+01 9.7748845697042427e+01 0 0 0
2187 4 1.4285483589014694e-01 7.3792330834187723e+01 3.7791213119563174e+01 9.8271959587280094e+01 0 0 0
2178 3 -4.3515747765459206e-01 7.6364886919259718e+01 3.4529871406875991e+01 9.7565999428768350e+01 0 0 0
2181 2 -2.5533340226701257e-01 7.5982029662373861e+01 3.7084236862399152e+01 9.8493045604125712e+01 0 0 0
2180 4 2.9347446945308336e-01 7.5636233033730676e+01 3.4798415516257577e+01 9.6792880883529406e+01 0 0 0
2186 2 3.6688908249100982e-02 7.4812193613567288e+01 3.7662416337761591e+01 9.6309297722224443e+01 0 0 0
2184 4 1.4601455467255217e-01 7.6779253530704267e+01 3.7740912523107973e+01 9.8103033708125835e+01 0 0 0
2189 1 -6.0006977260938377e-01 7.3827735404610124e+01 3.8766262370961257e+01 9.6133702096350007e+01 0 0 0
1914 4 1.4871527330803580e-01 7.5821587662955281e+01 3.8649714347574687e+01 9.1971382346007601e+01 0 0 0
1882 4 1.5899831128190506e-01 7.4621144816210276e+01 3.1469709749659447e+01 9.4425662364530382e+01 0 0 0
2192 2 4.8436023128920863e-01 7.3473859516896084e+01 3.8958184869763357e+01 9.4798219747490904e+01 0 0 0
2069 4 1.6206676715231003e-01 7.4395404847337559e+01 3.9832832511393676e+01 9.8063260502008433e+01 0 0 0
2193 2 -2.3726402062117846e-01 7.2837933098740578e+01 4.0330872876290442e+01 9.4508576906525875e+01 0 0 0
2070 4 1.2445146361516771e-01 7.5960277057899404e+01 4.0208899182682913e+01 9.7381104660054504e+01 0 0 0
2067 2 -1.8398854127814246e-01 7.5252917618627592e+01 4.0548891034364004e+01 9.8254166234814164e+01 0 0 0
2195 2 -1.6772461806050792e-01 7.1281136178145388e+01 4.0199159336902468e+01 9.4875141444277162e+01 0 0 0
2000 4 1.4408418892350638e-01 7.1210805054133374e+01 3.2526197371261290e+01 9.3280978466324243e+01 0 0 0
1919 4 1.4976217712364048e-01 7.5436889139991536e+01 3.5723291958213991e+01 9.3821406706750480e+01 0 0 0
1917 2 -1.5981202100163883e-01 7.6452292495874275e+01 3.5400992409917777e+01 9.3360022197399346e+01 0 0 0
1918 2 -1.7095763737480812e-01 7.6592530719219027e+01 3.3859098903494086e+01 9.3564789830657375e+01 0 0 0
2059 4 1.4394144062124337e-01 7.0346360925636034e+01 3.8841453831924305e+01 9.9622516790524358e+01 0 0 0
2196 4 1.4214127145862726e-01 7.3357347811951456e+01 4.1046001601322772e+01 9.5203341227007584e+01 0 0 0
2015 4 1.8942565283464557e-01 7.1333198957317350e+01 3.8002966383057625e+01 9.1655890462593462e+01 0 0 0
2185 4 1.8503614738715896e-01 7.5835726883688253e+01 3.7458693484170084e+01 9.9550803401697678e+01 0 0 0
1928 1 -6.4989992553628906e-01 7.6513616635305269e+01 3.1272022542738334e+01 9.4877521541559688e+01 0 0 0
2058 4 1.2910456480730653e-01 7.1459228435790934e+01 3.8066659505803528e+01 9.8526975691453316e+01 0 0 0
1910 2 -1.8289916354544897e-01 7.6878530289110429e+01 3.8869075734288046e+01 9.2287485058317500e+01 0 0 0
1907 2 -1.9491040720198685e-01 7.7202636551274949e+01 4.0327877950447693e+01 9.1993946286510820e+01 0 0 0
2197 4 1.7421453947963439e-01 7.3084275166069162e+01 4.0589296812393485e+01 9.3434678275318333e+01 0 0 0
2055 2 -2.6383931317361231e-01 7.1036984012178152e+01 3.7921714448654143e+01 9.9548342230281904e+01 0 0 0
2166 4 1.2637227415383556e-01 7.2695128621256131e+01 3.0564570250390727e+01 9.9712406671081709e+01 0 0 0
2064 4 1.1249827573015379e-01 7.2762717832322394e+01 3.9903336222544205e+01 9.9738804277680657e+01 0 0 0
1922 4 1.1380640208544576e-01 7.6869844095260504e+01 3.3340192666656527e+01 9.2527252864162719e+01 0 0 0
2051 1 -5.5232155647392656e-01 7.0937574465673777e+01 3.5412526101294588e+01 9.9469665113455974e+01 0 0 0
6261 2 -2.6011401948951079e-01 8.4591701767964381e+01 4.0767391206424968e+01 9.5762927317164156e+01 0 0 0
2021 1 -5.4992803110019062e-01 7.0305989514857131e+01 4.1002294492364463e+01 8.8150967538587039e+01 0 0 0
1876 4 1.4327124288661475e-01 7.3543233316626115e+01 3.0007488347166500e+01 9.3387533866047860e+01 0 0 0
2182 1 -5.3740570530443665e-01 7.6920054712151298e+01 3.5460892822086684e+01 9.9711011387038113e+01 0 0 0
1913 5 -1.2122378717771265e-01 7.7364127814783458e+01 3.8496646200226763e+01 9.4225231715317889e+01 0 0 0
1915 4 1.1452343583880419e-01 7.7370883253443054e+01 3.8212485950807597e+01 9.1518866229275076e+01 0 0 0
1911 4 9.3731954679467433e-02 7.7385663886915680e+01 4.0505957175411503e+01 9.0879275960804293e+01 0 0 0
2172 2 2.1313564769521301e-02 7.7068689964654808e+01 3.2411990122174409e+01 9.8830677878632642e+01 0 0 0
1744 4 1.5342612309839865e-01 7.9359433221486626e+01 3.2088338567641280e+01 9.2857765590772445e+01 0 0 0
6286 2 -1.9312247336317415e-01 8.0599205628043791e+01 3.6923273129386153e+01 9.1026664455680972e+01 0 0 0
730 4 1.3700104143030700e-01 7.9838470453776040e+01 4.0546059370455019e+01 9.9761413939731653e+01 0 0 0
727 2 -1.8121935530643332e-01 7.9350770993206268e+01 3.9670030473011394e+01 9.9214830793702191e+01 0 0 0
6285 2 -1.7620780845805695e-01 8.0340068825346009e+01 3.5578507968498684e+01 9.1725424437554878e+01 0 0 0
1742 4 1.4876804829643109e-01 7.7711556766495363e+01 3.0550042747175379e+01 9.2888510315805945e+01 0 0 0
1805 2 -1.7302652162938767e-01 8.4471679212951287e+01 3.6244716587407829e+01 9.1079085590966741e+01 0 0 0
742 4 1.3005298427853443e-01 8.2515598653202090e+01 3.4078935554957262e+01 9.8585533265771517e+01 0 0 0
1811 5 -9.5941520337542344e-02 8.3346950089316209e+01 3.3912305341942726e+01 9.2590308898030500e+01 0 0 0
744 4 1.3277208596837711e-01 8.0555263620494827e+01 3.1846954182504113e+01 9.8757200741083821e+01 0 0 0
1927 1 -5.7945102740354382e-01 7.8876790561962082e+01 3.1588088668367742e+01 9.5154886509250602e+01 0 0 0
738 1 -5.7489347109282585e-01 8.2227846107062078e+01 3.6341097184170415e+01 9.8780417904171571e+01 0 0 0
6281 5 -1.0491071236989628e-01 8.1976439724884784e+01 3.4105093578810376e+01 9.4569250586964927e+01 0 0 0
6308 4 1.9448691870667006e-01 8.4336188885709859e+01 3.8709727050265222e+01 9.9372523076068845e+01 0 0 0
1741 4 1.2502003217512120e-01 7.7311463352252957e+01 3.0811200440373621e+01 9.1139688424176995e+01 0 0 0
1935 4 1.9259802983300114e-01 8.1250442699030700e+01 3.0537584291137215e+01 9.4990947629037720e+01 0 0 0
734 2 4.6569589998244865e-01 8.0992225235827078e+01 3.6060579824032615e+01 9.9011060536584253e+01 0 0 0
6282 4 1.6261373079583563e-01 8.3514123496964189e+01 3.5972531983939277e+01 9.5604834888654054e+01 0 0 0
1926 4 1.8579428766479825e-01 7.7473640429692594e+01 3.4111032275133418e+01 9.5660887186327898e+01 0 0 0
6279 4 1.7453887882296554e-01 8.4162277313502628e+01 3.3069756553940969e+01 9.5199079918820189e+01 0 0 0
6280 4 1.3139441164300322e-01 8.4583018163161569e+01 3.3578054167310292e+01 9.6847752992367305e+01 0 0 0
1929 2 4.8679383700154198e-02 7.9075105270468953e+01 3.0175568777367332e+01 9.5241746365608066e+01 0 0 0
1813 4 1.5106696943285669e-01 8.4673775054415273e+01 3.6170290819242119e+01 9.3316159358771230e+01 0 0 0
743 2 -2.6509472456353012e-01 8.2741893085393045e+01 3.1659419428787523e+01 9.8425736373456985e+01 0 0 0
2155 2 -1.8906882934473007e-01 8.0991900449566472e+01 3.9403872306284327e+01 9.1560698337021208e+01 0 0 0
6268 4 1.4340193262742557e-01 8.4247751100103741e+01 3.9162132896394859e+01 9.4279098274753082e+01 0 0 0
748 4 1.2795693355164822e-01 8.2987692493286374e+01 3.1429620623857826e+01 9.9482038043689187e+01 0 0 0
740 2 -2.1325542838718820e-01 8.1380299238717001e+01 3.2434400139273976e+01 9.8305572180141823e+01 0 0 0
729 4 9.9963771172613292e-02 7.9255996615724072e+01 4.0139582662032794e+01 9.8214847891474676e+01 0 0 0
6278 2 -1.7001788330118311e-01 8.3187963055845813e+01 3.4887418779076192e+01 9.5836748025153341e+01 0 0 0
2176 4 1.1933330770472649e-01 7.7301348856340141e+01 3.1504943170049117e+01 9.8251525880137379e+01 0 0 0
2157 4 1.0453252634018931e-01 8.0136884075262145e+01 3.9905702529039345e+01 9.1078862473898738e+01 0 0 0
731 2 -2.4110495240848279e-01 7.9916548139866094e+01 3.7147835982347793e+01 9.9008176049462762e+01 0 0 0
746 2 3.6040444138320465e-01 8.2787935342270544e+01 3.0420219226927170e+01 9.7569449761702728e+01 0 0 0
1740 2 -1.8394183534669287e-01 7.9269396008148661e+01 3.1571623899694682e+01 9.1854419889904136e+01 0 0 0
2156 2 -2.0237809408466104e-01 8.0553815225167725e+01 3.8051754145811564e+01 9.2204252481767796e+01 0 0 0
1924 2 4.8037217986920894e-01 7.7535056589942343e+01 3.2020541472312843e+01 9.4960487083645631e+01 0 0 0
1916 5 -1.1805903878148813e-01 7.8069634019345926e+01 3.6309592784799470e+01 9.4046036093918673e+01 0 0 0
6265 4 1.4501416465188943e-01 8.3803363868973463e+01 4.0448249259851480e+01 9.6443944126771228e+01 0 0 0
2160 4 1.2713283993544675e-01 8.1152046654987018e+01 3.7840076705174894e+01 9.3083004169424768e+01 0 0 0
1921 2 -2.4577391452395461e-01 7.7657189638822544e+01 3.3518969024087681e+01 9.4732428188342340e+01 0 0 0
6288 4 1.7490553217916366e-01 7.9216073792300733e+01 3.5429071305399674e+01 9.1568991792910907e+01 0 0 0
6287 4 1.4324894460359397e-01 8.0562992159876600e+01 3.5685676225748558e+01 9.2813585048471381e+01 0 0 0
1737 2 -1.8484488870055071e-01 7.8197931319395721e+01 3.0506590549486809e+01 9.1839384102792366e+01 0 0 0
728 2 -1.5449247897803720e-01 8.0513362482622256e+01 3.8641017139766781e+01 9.9075256508836716e+01 0 0 0
2175 4 1.6018558942258077e-01 7.8082601447515316e+01 3.2822528458917638e+01 9.8658040505528447e+01 0 0 0
733 4 1.2823600948456601e-01 8.1094431466041343e+01 3.8903104699287958e+01 9.8111412366757406e+01 0 0 0
745 4 1.7940944478096824e-01 8.1165390387787255e+01 3.2558488151045296e+01 9.7172190827103222e+01 0 0 0
1745 4 1.1885343819409426e-01 8.0200919431254533e+01 3.1023977907072258e+01 9.2107408678889456e+01 0 0 0
1912 4 1.4150053610682420e-01 7.8166305324417678e+01 4.0440771263809765e+01 9.2570903256041973e+01 0 0 0
6275 2 -1.6502189686378063e-01 8.4406181353760772e+01 3.3971229484744086e+01 9.5809412269941348e+01 0 0 0
2154 5 -1.1251891117259140e-01 8.1873777250658733e+01 4.0491754384589257e+01 9.3085424160278990e+01 0 0 0
747 4 1.5053432542272058e-01 8.3525756665270805e+01 3.2375691602407983e+01 9.7993639389891470e+01 0 0 0
739 2 2.2959320808417057e-02 8.1530099463972320e+01 3.3816214836028507e+01 9.9042875211355437e+01 0 0 0
1812 4 1.2123138522121867e-01 8.3149551537200338e+01 3.6625888259281766e+01 9.2765944133320247e+01 0 0 0
1808 2 -1.8908521619968946e-01 8.3933411999226479e+01 3.5864413152377551e+01 9.2503225554386418e+01 0 0 0
735 4 1.7782765646397888e-01 7.9188547602651852e+01 3.6974647994488762e+01 9.9850002915643572e+01 0 0 0
737 1 -5.4305262651591357e-01 8.0401787333480343e+01 3.4759057771334888e+01 9.8984122044168643e+01 0 0 0
6283 4 1.6461154443068832e-01 8.2852196585916602e+01 3.5044346853182361e+01 9.6901050507660997e+01 0 0 0
750 1 -5.4472304263572846e-01 8.3341942603853823e+01 3.0682549689388853e+01 9.6431390229897417e+01 0 0 0
736 4 1.6028943326653591e-01 7.9270464422789360e+01 3.6969554128776856e+01 9.8091320732302236e+01 0 0 0
2054 2 4.8722275028068812e-01 7.0225206314752796e+01 3.6675051124524927e+01 9.9707113578626320e+01 0 0 0
1909 4 1.3357026450178935e-01 7.6038278626032110e+01 4.1106113210675005e+01 9.3708680581754805e+01 0 0 0
732 4 1.9275805019115766e-01 8.1327186601728258e+01 3.8748883295400482e+01 9.9899907314835886e+01 0 0 0
970 4 1.7059736573590381e-01 7.6009770100355695e+01 3.1156819894693811e+01 1.0662826655636925e+02 0 0 0
2063 5 -8.8756175637573070e-02 7.4755803766407865e+01 3.9045287180005126e+01 1.0157356127978731e+02 0 0 0
2229 4 1.3814993723150368e-01 7.3371455910946807e+01 3.7069727333739429e+01 1.0365978818340210e+02 0 0 0
2551 1 -5.6268103920290335e-01 7.1160104984064034e+01 3.7083519957622286e+01 1.0832656679423420e+02 0 0 0
2228 4 1.5166806102633007e-01 7.2933990088501929e+01 3.6775759576170920e+01 1.0542108231817305e+02 0 0 0
2225 2 -2.6706890401043371e-01 7.2626183728940745e+01 3.7319550167387170e+01 1.0447372833522635e+02 0 0 0
2169 4 1.2462533487970158e-01 7.4938735605022586e+01 3.3408056173632026e+01 1.0124281767074241e+02 0 0 0
2227 2 -1.5423266587736825e-01 7.2658411480288777e+01 3.8845931502130973e+01 1.0466646542818538e+02 0 0 0
2060 2 -1.9851812281861103e-01 7.2832548446596192e+01 3.9441256945161840e+01 1.0074331604817515e+02 0 0 0
2232 4 1.5621363534857591e-01 7.2223768612040175e+01 3.9411678305878894e+01 1.0374908506830177e+02 0 0 0
2231 4 1.5649529330361858e-01 7.1922433025579295e+01 3.9149682752437975e+01 1.0548389927493125e+02 0 0 0
983 4 1.6329470180806285e-01 7.2622809505492498e+01 3.0757209912251618e+01 1.0669371240724914e+02 0 0 0
2057 2 -1.7145485922408854e-01 7.2148767958712313e+01 3.8037827006873421e+01 1.0064525700625981e+02 0 0 0
2224 2 4.7457427244603645e-01 7.1140325734063651e+01 3.6995253236564118e+01 1.0407176686766915e+02 0 0 0
2061 4 1.3771982785925549e-01 7.3039979063033513e+01 3.7265102687906690e+01 1.0048683416717459e+02 0 0 0
2510 1 -4.6057850200674189e-01 7.0924438445414452e+01 3.2640592413574069e+01 1.0746698178933822e+02 0 0 0
2235 4 1.2807038439192342e-01 7.4648493289903698e+01 3.8431492056409681e+01 1.0530077430231324e+02 0 0 0