312
	Energy:     -92.9580511
O         57.11762        5.72820      -40.18152
C         57.60661        6.84853      -40.17937
C         57.77692        7.73302      -38.95030
O         58.09859        7.48094      -41.29179
C         57.13486        7.15160      -37.67722
H         58.85074        7.87716      -38.78797
H         57.31782        8.70364      -39.17030
C         57.35934        8.04338      -36.44194
H         56.05934        7.01401      -37.84512
H         57.54299        6.15276      -37.47739
N         56.52754        7.56645      -35.32078
H         57.06018        9.07167      -36.67623
H         58.42695        8.05356      -36.19049
C         57.03681        7.68997      -34.14102
C         56.27990        7.21049      -32.91050
C         56.58710        8.04101      -31.65333
H         56.58129        6.17088      -32.73919
H         55.20578        7.21994      -33.12584
C         55.88989        7.49141      -30.38879
H         56.28221        9.08139      -31.81942
H         57.67193        8.05650      -31.48961
C         56.27042        8.26835      -29.11735
H         56.15792        6.43548      -30.25863
H         54.80210        7.52280      -30.52486
C         55.66354        7.68120      -27.84983
H         57.35849        8.23823      -28.98925
H         55.97008        9.31839      -29.20400
N         55.34948        8.44092      -26.85506
C         54.87838        9.00050      -19.53247
C         54.04871        8.64040      -18.28437
O         54.53764        9.46262      -17.19295
H         52.99116        8.86673      -18.45264
H         54.15340        7.57683      -18.04502
C         54.40750        9.21340      -15.86342
N         53.39320        8.37379      -15.48187
O         55.14776        9.76108      -15.05481
C         53.12008        8.04006      -14.07443
H         52.25988        7.35834      -14.09983
C         54.27074        7.35439      -13.33941
C         52.79395        9.20162      -13.12817
H         55.24592        7.80616      -13.54264
H         54.33586        6.28989      -13.58398
O         54.00623        7.50480      -11.93494
H         53.24679       10.15179      -13.42660
O         51.37486        9.41478      -13.00478
C         53.31677        8.75296      -11.76044
C         51.08112        9.50581      -11.59956
H         54.02369        9.48162      -11.34757
C         52.06934        8.58759      -10.89336
H         51.20746       10.55141      -11.29242
H         50.04086        9.21999      -11.41825
H         51.71699        7.55156      -10.97009
N         52.23999        8.91976       -9.47924
C         51.63076        8.20814       -8.48198
O         51.84199        8.80595       -7.27829
O         50.98935        7.18285       -8.65420
C         51.38944        8.07078       -6.12198
C         50.69266        8.98410       -5.11239
H         52.27229        7.62288       -5.65121
H         50.71538        7.24488       -6.37565
O         50.33987        8.20699       -3.94971
H         49.78866        9.41403       -5.55978
H         51.36143        9.80369       -4.82398
C         49.74694        8.91245       -2.94164
C         49.47972        7.99992       -1.75941
O         49.50755       10.11038       -2.98223
C         48.63834        8.68512       -0.68176
H         48.95078        7.10949       -2.11818
H         50.44665        7.69559       -1.34426
C         48.51108        7.84145        0.58872
H         49.07578        9.65643       -0.41830
H         47.64044        8.90035       -1.08561
N         47.54478        8.50244        1.46881
H         49.49615        7.73294        1.05968
H         48.14025        6.84020        0.34115
C         47.75598        8.36696        2.72990
C         57.99370        6.73871      -42.52974
C         58.62058        7.54509      -43.67674
H         58.51460        5.77884      -42.43058
H         56.93868        6.53711      -42.74924
O         58.47986        6.86303      -44.94349
C         59.21621        7.40305      -45.95842
N         58.96733        6.74621      -47.13414
O         59.99501        8.33568      -45.83246
C         59.72765        6.99832      -48.36579
H         60.15921        8.00521      -48.30999
C         58.91558        6.85957      -49.65548
C         60.84482        5.98022      -48.57533
H         57.98478        6.30106      -49.50596
O         58.57174        8.13509      -50.21556
C         59.82362        6.14482      -50.65102
H         61.77495        6.27527      -48.08007
H         60.56391        4.98698      -48.20586
O         61.06699        5.87012      -49.98978
C         58.84814        8.08489      -51.62399
H         59.39033        5.18518      -50.95449
C         59.99986        7.10532      -51.82915
H         57.93461        7.74982      -52.12911
H         59.08671        9.08940      -51.98669
H         60.95323        7.63861      -51.72997
N         59.95838        6.46444      -53.14966
C         60.69287        6.90802      -54.21655
O         60.34107        6.23321      -55.34790
O         61.53685        7.78970      -54.16583
C         61.11123        6.58018      -56.52133
C         60.46473        6.00478      -57.78663
H         61.18916        7.66901      -56.62455
H         62.12311        6.17316      -56.41103
N         61.58563        4.66103      -64.79460
C         61.80997        4.71398      -66.05717
C         62.49235        5.78747      -66.84377
H         61.80535        6.12968      -67.62449
H         63.36273        5.34750      -67.34073
H         62.80809        6.63343      -66.23615
O         49.05497        6.29606       30.44220
C         48.95892        5.08825       30.28127
C         48.83534        4.05684       31.39547
O         48.93125        4.46987       29.05884
C         48.97481        4.65529       32.80662
H         47.85814        3.57154       31.29624
H         49.62068        3.30707       31.24571
C         48.81129        3.59882       33.91464
H         49.95437        5.14100       32.89826
H         48.22733        5.44565       32.95092
N         49.19596        4.17545       35.21635
H         49.47255        2.74922       33.70812
H         47.77881        3.22853       33.91425
C         48.53100        3.76070       36.24201
C         48.82409        4.30452       37.63282
C         48.62104        3.25929       38.74179
H         48.14021        5.14462       37.79741
H         49.84847        4.69283       37.65390
C         48.86835        3.83402       40.15384
H         49.29267        2.40993       38.56674
H         47.59866        2.86523       38.68587
C         48.67041        2.78774       41.26283
H         48.19417        4.68117       40.32984
H         49.88951        4.23138       40.20863
C         48.96083        3.33260       42.65405
H         47.64801        2.39427       41.24171
H         49.35845        1.95111       41.09786
N         48.30380        2.90796       43.68083
C         48.55476        1.68563       50.97522
C         48.58824        2.48904       52.28368
O         48.60000        1.61529       53.43575
H         49.49219        3.10919       52.30685
H         47.71832        3.15644       52.31291
C         48.35655        2.23915       54.62411
N         48.44842        1.34980       55.66313
O         48.07773        3.42232       54.74659
C         48.01502        1.68896       57.02270
H         48.17749        2.76275       57.17608
C         46.54495        1.35989       57.25314
C         48.69681        0.89529       58.14647
H         46.25067        0.43588       56.74171
H         45.87956        2.16054       56.91662
O         46.37033        1.15242       58.66030
H         49.07091       -0.07035       57.79008
O         49.78583        1.60136       58.75510
C         47.62368        0.72294       59.21513
C         49.25650        2.35832       59.85857
H         47.51504       -0.32749       59.50692
C         48.03739        1.60841       60.39334
H         50.04376        2.50496       60.60439
H         48.96311        3.34132       59.47275
H         47.25195        2.33121       60.63989
N         48.34687        0.84978       61.61569
C         47.84156        1.20355       62.83971
O         48.36820        0.42653       63.83015
O         47.03284        2.10145       63.02340
C         47.84645        0.74128       65.13778
C         48.54131       -0.06828       66.23656
H         46.77092        0.52491       65.15876
H         47.98008        1.81006       65.34799
O         47.96645        0.28262       67.51307
H         49.61456        0.15489       66.24095
H         48.40936       -1.14054       66.05138
C         48.48313       -0.37758       68.59408
C         47.77837        0.08399       69.85567
O         49.36615       -1.21986       68.53726
C         48.35929       -0.52073       71.13804
H         47.86026        1.17594       69.90703
H         46.72039       -0.18759       69.76847
C         47.57732       -0.05556       72.37026
H         48.33665       -1.61659       71.08594
H         49.41546       -0.23948       71.23453
N         48.29092       -0.46486       73.58602
H         46.55916       -0.46242       72.32964
H         47.50275        1.03830       72.36920
C         47.52849       -0.69870       74.59718
C         49.03955        5.34639       27.91290
C         48.94181        4.52117       26.62375
H         48.23207        6.08779       27.93512
H         49.99812        5.87715       27.94409
O         49.08714        5.34677       25.44690
H         49.73023        3.75849       26.62081
H         47.97311        4.00614       26.60916
C         48.80903        4.69036       24.28298
N         49.01069        5.50342       23.19735
O         48.42439        3.53200       24.21878
C         48.67898        5.07592       21.82939
H         48.44515        4.00609       21.86216
C         49.78484        5.36678       20.81660
C         47.47635        5.82971       21.26244
H         50.70936        5.71146       21.29238
O         50.10428        4.19437       20.05412
C         49.22962        6.41081       19.85726
H         46.84849        5.15726       20.66693
H         46.84958        6.29388       22.03001
O         47.96816        6.85102       20.37546
C         50.10524        4.55534       18.66663
H         49.88938        7.28298       19.79096
C         49.10142        5.69423       18.50418
H         51.12180        4.86410       18.39698
H         49.84107        3.67510       18.07333
H         48.08923        5.29051       18.37908
N         49.35332        6.56538       17.35399
C         49.58314        6.08533       16.09374
O         49.67244        7.11100       15.20905
O         49.72949        4.90325       15.81672
C         50.18267        6.77205       13.90331
C         49.47917        7.57996       12.81326
H         51.25226        7.01360       13.89491
H         50.09576        5.70389       13.67241
N         50.77669        9.10131        5.77479
C         51.62702        9.62559        4.96423
C         51.16746       10.28585        3.69918
H         51.42319       11.34762        3.73713
H         50.08942       10.17251        3.56564
H         51.69001        9.83104        2.85315
O         48.51907        0.76450       48.44107
C         48.54972        2.42104       46.08734
C         48.58809        1.97313       48.61083
C         48.67754        3.01479       47.50239
O         48.61436        2.58092       49.84005
H         49.64152        3.52605       47.60039
H         47.87237        3.74145       47.65981
O         56.10681        9.44194      -21.84030
C         54.79898        7.77322      -25.66015
C         55.13227        8.70187      -21.85564
C         55.30786        8.48101      -24.39148
O         54.40364        8.36200      -20.73743
H         47.62978        1.09813       50.93173
H         49.40411        0.99313       50.94391
H         55.92157        8.70915      -19.35532
H         54.85414       10.08919      -19.66931
O         59.67011        5.24635      -60.20457
C         61.96862        5.70706      -63.85247
C         60.73537        5.84457      -60.12727
C         61.62327        6.19391      -61.31677
O         61.26561        6.30691      -58.95255
O         49.49958        9.40321       10.79746
C         50.54780        8.86414        8.19576
C         50.06155        8.33173       10.62731
C         50.81747        7.92809        9.37698
O         50.13268        7.32924       11.55215
H         50.50643        6.91302        9.10353
H         51.88684        7.91853        9.61448
H         49.49011        8.64361       13.07540
H         48.43408        7.25970       12.73270
H         59.46255        6.43457      -57.90722
H         60.35978        4.91764      -57.68459
H         53.70611        7.84286      -25.70319
C         54.58096        8.03038      -23.10680
H         56.38551        8.29756      -24.29145
H         54.68415        6.94721      -22.98401
H         53.51823        8.28396      -23.18744
C         48.68272        3.48660       44.98353
H         49.70611        3.88122       44.98013
H         48.00299        4.31953       45.19779
H         49.31697        1.65109       45.93638
H         55.19519        9.56687      -24.50528
C         51.35532        8.45832        6.96038
H         51.29884        7.37376        6.81424
H         52.41151        8.71337        7.11468
C         61.18427        5.41442      -62.56256
H         61.71257        6.70626      -64.22234
H         62.65809        5.93190      -61.07036
H         61.55642        7.27179      -61.49513
H         61.25528        4.34138      -62.33868
H         60.12149        5.60745      -62.76049
C         46.82583        8.99538        3.72327
H         46.06176        9.59347        3.21996
H         47.40212        9.63126        4.40009
H         46.34562        8.20641        4.30785
C         48.10571       -1.06028       75.93270
H         47.76324       -2.05928       76.21424
H         47.73868       -0.34700       76.67649
H         49.19763       -1.03518       75.91230
H         59.67957        7.71823      -43.44965
H         58.12491        8.52070      -43.74732
H         61.46222        3.85154      -66.65349
H         58.06044        8.07203      -33.97844
H         47.68295        3.05876       36.15083
H         55.58179        6.58088      -27.80027
H         49.80076        4.04435       42.74418
H         49.47498        8.85895        7.96570
H         50.79766        9.89857        8.46470
H         47.58289        1.91047       45.99557
H         55.06703        6.71068      -25.61760
H         63.04672        5.66338      -63.66346
H         52.71629        9.62486        5.14737
H         46.42649       -0.64371       74.54227
H         48.60076        7.78761        3.14302
H         52.69910        9.77513       -9.19608
H         49.07453        0.14727       61.61567
H         52.70525        8.10963      -16.17004
H         48.58165        0.38460       55.39328
H         58.36095        5.94097      -47.05966
H         49.26157        6.46354       23.39192
H         59.23880        5.79013      -53.37200
H         49.07230        7.53701       17.39468
